# Probe 0 (1 0 0)
# Probe 1 (140 0 0)
# Probe 2 (200 0 0)
# Probe 3 (249.6 0 0)
# Probe 4 (255 0 0)
#       Probe             0             1             2             3             4
#        Time
            0        0.8037        0.8037        0.8037        0.8037        0.8037
          0.1        0.8037        0.8037        0.8037      0.809831      0.809981
          0.2        0.8037        0.8037        0.8037      0.809894      0.810075
          0.3        0.8037        0.8037        0.8037      0.809943      0.810106
          0.4        0.8037        0.8037      0.804534       0.80997      0.810121
          0.5        0.8037        0.8037      0.809701      0.809986      0.810145
          0.6        0.8037        0.8037      0.809751      0.810004      0.810159
          0.7        0.8037        0.8037      0.809774      0.810023      0.810174
          0.8        0.8037      0.803935      0.809796      0.810046      0.810198
          0.9        0.8037      0.809156      0.809819      0.810072      0.810213
            1        0.8037      0.809467      0.809842      0.810102      0.810248
          1.1        0.8037      0.809489      0.809865      0.810129       0.81027
          1.2        0.8037      0.809512       0.80989      0.810157       0.81029
          1.3        0.8037      0.809535      0.809917      0.810185       0.81031
          1.4        0.8037      0.809558      0.809943      0.810212      0.810332
          1.5        0.8037      0.809583      0.809968      0.810238      0.810347
          1.6      0.803701      0.809609      0.809993      0.810263      0.810374
          1.7      0.803743      0.809634      0.810017      0.810288      0.810406
          1.8      0.804605       0.80966      0.810041      0.810313      0.810432
          1.9      0.809767      0.809684      0.810065      0.810337      0.810455
            2      0.813712      0.809709      0.810088      0.810361      0.810479
          2.1      0.813734      0.809733      0.810111      0.810385      0.810503
          2.2      0.813783      0.809756      0.810134      0.810408      0.810527
          2.3      0.813836      0.809779      0.810156      0.810431       0.81055
          2.4      0.813891      0.809803      0.810178      0.810454      0.810572
          2.5      0.813945      0.809833      0.810199      0.810477      0.810594
          2.6      0.813998      0.809878       0.81022      0.810499      0.810616
          2.7       0.81405       0.80992      0.810241      0.810521      0.810637
          2.8        0.8141      0.810203      0.810267      0.810543      0.810658
          2.9      0.814151      0.812015      0.810305      0.810565      0.810678
            3        0.8142        0.8139      0.810344      0.810587      0.810698
          3.1      0.814249       0.81404       0.81038      0.810618      0.810723
          3.2      0.814297      0.814096      0.810466      0.810668      0.810773
          3.3      0.814343      0.814163      0.811667      0.810722       0.81085
          3.4      0.814385      0.814249      0.813745      0.810846      0.811022
          3.5      0.814411      0.814342      0.814319      0.810975      0.811142
          3.6      0.814439      0.814433       0.81446      0.811438      0.811357
          3.7      0.814486      0.814521      0.814588      0.813501      0.813294
          3.8      0.814573      0.814612      0.814727       0.81647      0.816947
          3.9      0.814658      0.814719      0.814852      0.818119      0.818278
            4      0.814739      0.814842      0.815023      0.818377      0.818486
          4.1      0.814817      0.814965      0.815845       0.81851      0.818622
          4.2      0.814883      0.815081      0.817563      0.818615      0.818729
          4.3      0.814935      0.815177      0.818388      0.818697      0.818819
          4.4       0.81498      0.815283      0.818538      0.818767      0.818892
          4.5      0.815025      0.815727      0.818617      0.818838      0.818969
          4.6      0.815069      0.817095      0.818694      0.818909      0.819046
          4.7      0.815113      0.818272      0.818771      0.818985      0.819123
          4.8      0.815166      0.818543      0.818844      0.819064      0.819207
          4.9      0.815245      0.818635      0.818906      0.819145      0.819275
            5      0.815351      0.818705      0.818966       0.81923      0.819338
          5.1      0.815466      0.818775      0.819034      0.819313      0.819402
          5.2      0.815584      0.818845      0.819105      0.819389      0.819465
          5.3      0.815705      0.818915      0.819181      0.819452      0.819517
          5.4      0.815916      0.818985      0.819256      0.819507      0.819565
          5.5      0.816678      0.819057      0.819332      0.819567      0.819627
          5.6      0.818685      0.819128      0.819405      0.819633      0.819694
          5.7      0.820814      0.819202       0.81947      0.819704      0.819766
          5.8      0.821503      0.819282      0.819531      0.819773      0.819844
          5.9      0.821674      0.819371      0.819595      0.819825      0.819912
            6      0.821777       0.81947      0.819662      0.819874      0.819982
          6.1      0.821872      0.819568      0.819729      0.819925      0.820057
          6.2      0.821967      0.819661        0.8198      0.819985      0.820133
          6.3      0.822062      0.819764      0.819879       0.82005        0.8202
          6.4      0.822158      0.819928      0.819968      0.820116      0.820276
          6.5      0.822257      0.820338      0.820062      0.820183      0.820341
          6.6      0.822359      0.821195       0.82016      0.820256      0.820416
          6.7      0.822463      0.822125      0.820262      0.820342      0.820504
          6.8      0.822571      0.822533      0.820406      0.820434      0.820609
          6.9      0.822681      0.822681      0.820721      0.820555       0.82073
            7      0.822796      0.822796      0.821424      0.820684      0.820862
          7.1      0.822913      0.822913      0.822364      0.820844      0.821024
          7.2      0.823028      0.823035      0.822929      0.821114      0.821246
          7.3      0.823143      0.823157      0.823164      0.821707       0.82177
          7.4      0.823261      0.823281      0.823325      0.822892      0.822964
          7.5      0.823381      0.823409      0.823479      0.824351      0.824579
          7.6      0.823501      0.823543      0.823664      0.825332       0.82558
          7.7      0.823619      0.823682      0.823976      0.825765      0.825993
          7.8      0.823732      0.823821      0.824575      0.825967      0.826176
          7.9      0.823838      0.823957      0.825381      0.826119       0.82631
            8      0.823933      0.824107      0.825945      0.826243      0.826432
          8.1      0.824024      0.824337      0.826197      0.826364       0.82655
          8.2      0.824112      0.824786      0.826342       0.82648      0.826659
          8.3        0.8242      0.825489      0.826464      0.826598      0.826773
          8.4      0.824291      0.826115       0.82658      0.826717      0.826898
          8.5      0.824389      0.826432      0.826693      0.826836      0.827016
          8.6      0.824498      0.826592      0.826803      0.826959      0.827133
          8.7      0.824617      0.826714      0.826913      0.827085       0.82726
          8.8      0.824744      0.826826      0.827024      0.827208      0.827375
          8.9      0.824885      0.826937      0.827136      0.827326      0.827486
            9      0.825079      0.827047      0.827251      0.827437      0.827597
          9.1      0.825439      0.827157      0.827364      0.827545      0.827707
          9.2      0.826156      0.827267      0.827478      0.827652      0.827822
          9.3      0.827265      0.827378      0.827588      0.827764      0.827934
          9.4      0.828274      0.827491      0.827695      0.827873      0.828039
          9.5      0.828817      0.827607      0.827801      0.827985      0.828147
          9.6      0.829063      0.827727      0.827905      0.828095      0.828262
          9.7      0.829219       0.82785      0.828011      0.828205      0.828364
          9.8      0.829352      0.827974      0.828117      0.828317      0.828468
          9.9      0.829481      0.828106      0.828227      0.828423      0.828567
           10       0.82961      0.828267      0.828341       0.82853      0.828662
         10.1      0.829739       0.82851      0.828457      0.828636      0.828756
         10.2       0.82987      0.828903      0.828578      0.828744      0.828845
         10.3      0.830004      0.829439      0.828706      0.828857      0.828935
         10.4      0.830138      0.829929      0.828861      0.828976      0.829034
         10.5      0.830275      0.830237      0.829084      0.829107      0.829149
         10.6      0.830413      0.830424      0.829425      0.829246      0.829282
         10.7      0.830553      0.830574      0.829917      0.829408      0.829458
         10.8      0.830694      0.830717      0.830424      0.829626      0.829658
         10.9      0.830836      0.830859      0.830781       0.82997      0.829952
           11      0.830977      0.831004      0.831013      0.830547      0.830499
         11.1      0.831119      0.831149      0.831197      0.831324      0.831283
         11.2      0.831261      0.831296      0.831386      0.832111      0.832109
         11.3      0.831402      0.831447      0.831621      0.832668      0.832694
         11.4       0.83154      0.831599      0.831955         0.833       0.83304
         11.5      0.831675      0.831754      0.832401      0.833205      0.833243
         11.6      0.831805       0.83192      0.832858      0.833378      0.833399
         11.7      0.831929       0.83212      0.833202      0.833529      0.833549
         11.8       0.83205      0.832399      0.833429      0.833674        0.8337
         11.9      0.832169      0.832784      0.833598       0.83382      0.833838
           12       0.83229      0.833218      0.833746      0.833962      0.833978
         12.1      0.832413      0.833575      0.833888      0.834116      0.834115
         12.2       0.83254      0.833818      0.834025      0.834259      0.834273
         12.3      0.832673      0.833994      0.834154      0.834403      0.834422
         12.4      0.832813      0.834142      0.834277      0.834547      0.834561
         12.5      0.832967      0.834282      0.834411      0.834694      0.834705
         12.6      0.833156      0.834418      0.834549      0.834834      0.834843
         12.7      0.833424      0.834554      0.834687      0.834969      0.834989
         12.8      0.833833      0.834689      0.834825      0.835103      0.835124
         12.9      0.834414      0.834824      0.834961      0.835239      0.835254
           13      0.835062       0.83496      0.835096      0.835377      0.835386
         13.1      0.835587      0.835097      0.835229      0.835511      0.835523
         13.2       0.83593      0.835235      0.835361      0.835643      0.835664
         13.3      0.836153      0.835376      0.835492      0.835774      0.835805
         13.4      0.836325      0.835518      0.835624      0.835894      0.835927
         13.5       0.83648      0.835669      0.835756       0.83602      0.836055
         13.6      0.836631      0.835837      0.835891      0.836135      0.836196
         13.7      0.836779      0.836044      0.836028      0.836252      0.836335
         13.8      0.836929      0.836315      0.836167      0.836372      0.836464
         13.9      0.837079      0.836652      0.836314      0.836497      0.836596
           14       0.83723      0.837005      0.836475      0.836635      0.836727
         14.1      0.837382      0.837304      0.836663      0.836774       0.83688
         14.2      0.837534      0.837531      0.836911      0.836919       0.83703
         14.3      0.837688      0.837712      0.837227      0.837086      0.837184
         14.4      0.837842      0.837875      0.837569      0.837285      0.837381
         14.5      0.837997      0.838033      0.837884      0.837554      0.837649
         14.6      0.838152      0.838188      0.838134      0.837919      0.837985
         14.7      0.838306      0.838344      0.838342      0.838388      0.838463
         14.8      0.838459      0.838501      0.838536      0.838887      0.838999
         14.9      0.838612      0.838659      0.838747      0.839337       0.83946
           15      0.838763      0.838818      0.838999      0.839667      0.839788
         15.1      0.838913      0.838982      0.839294      0.839916       0.84005
         15.2      0.839059      0.839153      0.839617      0.840098      0.840228
         15.3      0.839202      0.839347      0.839915      0.840247      0.840389
         15.4      0.839342      0.839576      0.840157      0.840371      0.840552
         15.5      0.839481       0.83985      0.840355      0.840524      0.840707
         15.6       0.83962      0.840156      0.840528      0.840682       0.84086
         15.7       0.83976      0.840443      0.840689      0.840837      0.841016
         15.8      0.839901      0.840683      0.840845      0.840994      0.841181
         15.9      0.840046      0.840881      0.841001       0.84115      0.841333
           16      0.840197      0.841051      0.841154      0.841308      0.841492
         16.1      0.840361      0.841209      0.841308      0.841462      0.841652
         16.2       0.84055      0.841361       0.84146      0.841615      0.841812
         16.3      0.840783      0.841511      0.841613      0.841765      0.841962
         16.4      0.841087       0.84166      0.841762      0.841918      0.842102
         16.5      0.841467      0.841809      0.841915      0.842067      0.842261
         16.6      0.841886      0.841958      0.842066      0.842214      0.842411
         16.7      0.842272      0.842107      0.842213      0.842362      0.842558
         16.8      0.842582      0.842256       0.84236      0.842512      0.842702
         16.9      0.842819      0.842407      0.842505      0.842658      0.842855
           17      0.843012      0.842562      0.842651      0.842802      0.843009
         17.1      0.843183      0.842722      0.842797      0.842949      0.843149
         17.2      0.843346      0.842895      0.842943      0.843096      0.843294
         17.3      0.843505       0.84309      0.843092       0.84324      0.843439
         17.4      0.843663      0.843315      0.843242      0.843383      0.843588
         17.5      0.843822      0.843571      0.843398      0.843527      0.843731
         17.6      0.843981      0.843835      0.843565      0.843677       0.84388
         17.7      0.844139      0.844083      0.843752      0.843827       0.84402
         17.8      0.844297      0.844297      0.843969      0.843984      0.844196
         17.9      0.844458      0.844485      0.844215      0.844154      0.844351
           18      0.844619      0.844656      0.844476      0.844356      0.844541
         18.1      0.844778       0.84482      0.844728      0.844586      0.844779
         18.2      0.844937      0.844981      0.844954      0.844874      0.845063
         18.3      0.845097      0.845142      0.845153       0.84521      0.845385
         18.4      0.845255      0.845303      0.845352      0.845557       0.84574
         18.5      0.845413      0.845464      0.845558      0.845887      0.846039
         18.6       0.84557      0.845626      0.845783      0.846168      0.846301
         18.7      0.845725      0.845793      0.846029      0.846396      0.846499
         18.8      0.845878      0.845965      0.846281       0.84659      0.846684
         18.9       0.84603      0.846153       0.84652      0.846762       0.84682
           19      0.846179      0.846358      0.846733      0.846937      0.846968
         19.1      0.846328      0.846586      0.846924      0.847098      0.847131
         19.2      0.846476      0.846822      0.847098      0.847258      0.847293
         19.3      0.846626      0.847055      0.847266       0.84742      0.847448
         19.4      0.846776      0.847266      0.847428       0.84758      0.847618
         19.5      0.846929      0.847466      0.847587      0.847735      0.847784
         19.6      0.847087      0.847647      0.847745      0.847891      0.847936
         19.7      0.847256       0.84781      0.847903       0.84805      0.848095
         19.8      0.847444      0.847967       0.84806      0.848213      0.848252
         19.9       0.84766      0.848121      0.848216      0.848366      0.848411
           20      0.847913      0.848275      0.848372      0.848519      0.848582
         20.1      0.848201      0.848429      0.848528      0.848671      0.848735
         20.2      0.848504      0.848583      0.848683      0.848831      0.848887
         20.3      0.848791      0.848735      0.848837      0.848984       0.84905
         20.4      0.849042      0.848889      0.848989      0.849131      0.849203
         20.5      0.849259      0.849042      0.849142      0.849284      0.849355
         20.6      0.849449      0.849202      0.849294      0.849438      0.849507
         20.7      0.849624      0.849367      0.849446      0.849589      0.849652
         20.8       0.84979      0.849542      0.849597      0.849737      0.849815
         20.9      0.849953      0.849732      0.849751      0.849886      0.849968
           21      0.850114      0.849939      0.849908      0.850037      0.850114
         21.1      0.850274      0.850152      0.850068      0.850191      0.850269
         21.2      0.850434      0.850369      0.850237      0.850338      0.850425
         21.3      0.850594      0.850578       0.85042      0.850498      0.850576
         21.4      0.850754      0.850772      0.850618      0.850662      0.850746
         21.5      0.850915      0.850951      0.850828       0.85083      0.850915
         21.6      0.851075      0.851121      0.851045      0.851027      0.851098
         21.7      0.851236      0.851287      0.851256      0.851242      0.851326
         21.8      0.851396      0.851448      0.851457      0.851483      0.851553
         21.9      0.851556      0.851609      0.851649      0.851745      0.851831
           22      0.851715       0.85177       0.85184      0.852004      0.852091
         22.1      0.851873      0.851931      0.852035      0.852262       0.85236
         22.2       0.85203      0.852093      0.852238      0.852488      0.852578
         22.3      0.852187      0.852256      0.852448      0.852697      0.852784
         22.4      0.852342      0.852425      0.852657      0.852879      0.852957
         22.5      0.852495      0.852601       0.85286       0.85306      0.853129
         22.6      0.852648       0.85279      0.853055      0.853221      0.853303
         22.7      0.852802      0.852988      0.853236       0.85339      0.853455
         22.8      0.852954      0.853191      0.853405      0.853552      0.853632
         22.9      0.853106      0.853391      0.853571      0.853708      0.853788
           23       0.85326      0.853581      0.853733      0.853871      0.853951
         23.1      0.853416      0.853761      0.853892      0.854029      0.854119
         23.2      0.853578      0.853932      0.854051      0.854185      0.854273
         23.3      0.853749      0.854097      0.854209      0.854348       0.85443
         23.4      0.853935      0.854257      0.854365      0.854504      0.854605
         23.5      0.854137      0.854416      0.854523      0.854657      0.854761
         23.6      0.854358      0.854573      0.854679      0.854817      0.854906
         23.7      0.854594       0.85473      0.854834       0.85497      0.855078
         23.8      0.854832      0.854886      0.854989      0.855124      0.855231
         23.9       0.85506      0.855042      0.855143      0.855285      0.855377
           24      0.855269      0.855198      0.855298      0.855434      0.855541
         24.1      0.855461      0.855357      0.855451      0.855586      0.855689
         24.2      0.855639      0.855517      0.855604      0.855744       0.85584
         24.3      0.855809      0.855682      0.855757      0.855891      0.856001
         24.4      0.855973      0.855853      0.855911      0.856047      0.856149
         24.5      0.856134      0.856032      0.856066      0.856198      0.856305
         24.6      0.856293      0.856219      0.856223      0.856348       0.85646
         24.7      0.856453       0.85641      0.856385      0.856506      0.856604
         24.8      0.856611        0.8566      0.856554      0.856661      0.856768
         24.9      0.856769      0.856784      0.856729      0.856815      0.856928
           25      0.856928      0.856962      0.856912      0.856985      0.857084
         25.1      0.857086      0.857131      0.857101      0.857157      0.857267
         25.2      0.857245      0.857296      0.857291      0.857343      0.857437
         25.3      0.857403      0.857456      0.857477      0.857543      0.857647
         25.4       0.85756      0.857615      0.857659       0.85775      0.857853
         25.5      0.857717      0.857772      0.857839      0.857974      0.858078
         25.6      0.857875       0.85793       0.85802      0.858187      0.858276
         25.7      0.858031      0.858089      0.858203      0.858401      0.858486
         25.8      0.858185      0.858251      0.858388      0.858591       0.85865
         25.9       0.85834      0.858416      0.858576      0.858783       0.85882
           26      0.858494      0.858585      0.858761      0.858954      0.858984
         26.1      0.858647      0.858758      0.858942       0.85912      0.859134
         26.2      0.858799      0.858937      0.859119      0.859262      0.859307
         26.3      0.858951      0.859118      0.859286      0.859379      0.859453
         26.4      0.859103      0.859299      0.859449      0.859534      0.859607
         26.5      0.859256      0.859477      0.859609       0.85969      0.859782
         26.6       0.85941      0.859648      0.859767      0.859843      0.859929
         26.7      0.859568      0.859815      0.859925      0.859997      0.860088
         26.8       0.85973      0.859977       0.86008      0.860158      0.860247
         26.9        0.8599      0.860136      0.860235      0.860309       0.86041
           27       0.86008      0.860293      0.860389      0.860462      0.860561
         27.1      0.860268      0.860447      0.860544      0.860621      0.860712
         27.2      0.860466      0.860602      0.860698      0.860775      0.860881
         27.3      0.860668      0.860756       0.86085      0.860925       0.86103
         27.4      0.860867      0.860909      0.861004      0.861083       0.86118
         27.5      0.861059      0.861063      0.861155      0.861234       0.86135
         27.6       0.86124      0.861218      0.861308      0.861383      0.861495
         27.7      0.861413      0.861374      0.861459      0.861541      0.861649
         27.8       0.86158      0.861534      0.861611       0.86169      0.861804
         27.9      0.861742      0.861695      0.861763      0.861843      0.861955
           28        0.8619      0.861862      0.861916      0.861993      0.862115
         28.1      0.862056      0.862032      0.862071       0.86214      0.862264
         28.2      0.862213      0.862204      0.862227      0.862296       0.86241
         28.3      0.862367      0.862375      0.862387      0.862446      0.862567
         28.4      0.862521      0.862546       0.86255      0.862599      0.862718
         28.5      0.862676      0.862714      0.862718      0.862759      0.862884
         28.6      0.862831      0.862877       0.86289      0.862923       0.86304
         28.7      0.862986      0.863038      0.863063      0.863093      0.863218
         28.8       0.86314      0.863195      0.863235      0.863267      0.863387
         28.9      0.863294      0.863352      0.863402      0.863458      0.863588
           29      0.863448      0.863507      0.863573      0.863643      0.863766
         29.1      0.863601      0.863663      0.863742      0.863835       0.86396
         29.2      0.863755      0.863818      0.863913      0.864016      0.864142
         29.3      0.863906      0.863972      0.864083        0.8642      0.864321
         29.4      0.864059      0.864132      0.864254      0.864372        0.8645
         29.5      0.864209      0.864293      0.864427      0.864537      0.864657
         29.6       0.86436      0.864456      0.864595      0.864704      0.864825
         29.7      0.864509      0.864623      0.864759      0.864856      0.864993
         29.8      0.864659       0.86479      0.864919       0.86502      0.865138
         29.9      0.864808      0.864957      0.865078      0.865169      0.865309
           30      0.864959      0.865122      0.865235      0.865327      0.865453
         30.1      0.865109      0.865285      0.865389      0.865479      0.865613
         30.2       0.86526      0.865443      0.865542      0.865631       0.86575
         30.3      0.865417      0.865601      0.865694      0.865782      0.865894
         30.4      0.865579      0.865754      0.865846      0.865939      0.866041
         30.5      0.865745      0.865907      0.865997      0.866088      0.866168
         30.6      0.865916      0.866059      0.866146      0.866247      0.866292
         30.7      0.866092      0.866209      0.866298      0.866394      0.866444
         30.8       0.86627      0.866359      0.866448       0.86655      0.866576
         30.9      0.866447      0.866509      0.866597      0.866698      0.866724
           31       0.86662      0.866658      0.866746      0.866848      0.866871
         31.1      0.866789      0.866809      0.866895      0.867002      0.867012
         31.2      0.866954      0.866961      0.867043      0.867149      0.867174
         31.3      0.867113      0.867114      0.867192      0.867298      0.867315
         31.4       0.86727       0.86727       0.86734      0.867447      0.867458
         31.5      0.867424      0.867428      0.867489      0.867597      0.867605
         31.6      0.867576      0.867586      0.867637      0.867745      0.867761
         31.7      0.867728      0.867747       0.86779      0.867886      0.867899
         31.8      0.867878      0.867908      0.867943       0.86803      0.868061
         31.9      0.868027      0.868067      0.868099       0.86817      0.868199
           32      0.868177      0.868225      0.868255       0.86831      0.868364
         32.1      0.868328      0.868381      0.868416      0.868462      0.868513
         32.2      0.868479      0.868536      0.868577      0.868623      0.868676
         32.3      0.868629      0.868688      0.868737      0.868782      0.868848
         32.4      0.868778      0.868838      0.868896      0.868954      0.869003
         32.5      0.868927      0.868988      0.869055       0.86912      0.869188
         32.6      0.869076      0.869139      0.869215      0.869292      0.869346
         32.7      0.869223       0.86929      0.869374      0.869457      0.869527
         32.8      0.869371      0.869439      0.869535      0.869622      0.869688
         32.9      0.869518       0.86959      0.869694      0.869786      0.869843
           33      0.869664      0.869745      0.869852       0.86994      0.870006
         33.1      0.869811        0.8699      0.870009      0.870096      0.870161
         33.2      0.869957      0.870057      0.870164      0.870251      0.870323
         33.3      0.870102      0.870214      0.870318      0.870398      0.870469
         33.4      0.870247      0.870369      0.870471      0.870551      0.870612
         33.5      0.870394      0.870524      0.870622      0.870698      0.870766
         33.6      0.870543      0.870678      0.870773      0.870844      0.870921
         33.7      0.870691       0.87083       0.87092       0.87099      0.871062
         33.8      0.870841       0.87098      0.871068      0.871139      0.871219
         33.9      0.870994      0.871128      0.871216      0.871284      0.871371
           34      0.871151      0.871277      0.871361      0.871436      0.871511
         34.1       0.87131      0.871421      0.871508      0.871579      0.871667
         34.2      0.871471      0.871567      0.871653      0.871726      0.871808
         34.3      0.871633      0.871714      0.871799      0.871872       0.87196
         34.4      0.871794      0.871859      0.871944      0.872015      0.872108
         34.5      0.871954      0.872005      0.872088      0.872165      0.872247
         34.6      0.872112      0.872151      0.872232      0.872308       0.87239
         34.7      0.872266      0.872298      0.872377      0.872449      0.872544
         34.8      0.872418      0.872445      0.872522      0.872594      0.872688
         34.9      0.872568      0.872594      0.872666      0.872738      0.872837
           35      0.872715      0.872744       0.87281      0.872881      0.872976
         35.1      0.872861      0.872895      0.872955      0.873026      0.873118
         35.2      0.873008      0.873046      0.873101      0.873165      0.873266
         35.3      0.873154      0.873197      0.873248      0.873316      0.873411