# Probe 0 (1 0 0)
# Probe 1 (140 0 0)
# Probe 2 (200 0 0)
# Probe 3 (249.6 0 0)
# Probe 4 (255 0 0)
#       Probe             0             1             2             3             4
#        Time
            0   5.43947e+06   5.43947e+06   5.43947e+06   5.43947e+06   5.43947e+06
          0.1   5.43947e+06   5.43947e+06   5.43947e+06    5.3737e+06   5.37421e+06
          0.2   5.43947e+06   5.43947e+06   5.43947e+06   5.37329e+06   5.37186e+06
          0.3   5.43947e+06   5.43947e+06   5.43947e+06   5.37298e+06     5.372e+06
          0.4   5.43947e+06   5.43947e+06   5.43063e+06   5.37247e+06   5.37333e+06
          0.5   5.43947e+06   5.43947e+06   5.37528e+06   5.37298e+06   5.37181e+06
          0.6   5.43947e+06   5.43947e+06   5.37537e+06   5.37402e+06   5.37298e+06
          0.7   5.43947e+06   5.43946e+06   5.37608e+06   5.37509e+06   5.37511e+06
          0.8   5.43947e+06   5.43677e+06   5.37675e+06   5.37572e+06   5.37441e+06
          0.9   5.43947e+06   5.38059e+06   5.37728e+06   5.37595e+06   5.37683e+06
            1   5.43947e+06   5.37893e+06   5.37776e+06   5.37619e+06   5.37473e+06
          1.1   5.43947e+06   5.37949e+06   5.37816e+06    5.3765e+06   5.37649e+06
          1.2   5.43947e+06   5.37999e+06   5.37836e+06    5.3764e+06   5.37735e+06
          1.3   5.43947e+06    5.3804e+06   5.37849e+06   5.37642e+06   5.37734e+06
          1.4   5.43946e+06   5.38076e+06   5.37863e+06   5.37658e+06   5.37704e+06
          1.5   5.43946e+06   5.38097e+06   5.37874e+06   5.37681e+06   5.37654e+06
          1.6   5.43945e+06   5.38107e+06   5.37887e+06   5.37706e+06   5.37601e+06
          1.7   5.43898e+06   5.38116e+06   5.37899e+06    5.3773e+06   5.37575e+06
          1.8   5.42964e+06   5.38125e+06   5.37909e+06    5.3775e+06   5.37593e+06
          1.9   5.37329e+06   5.38134e+06   5.37918e+06   5.37763e+06   5.37619e+06
            2    5.3305e+06   5.38142e+06   5.37926e+06   5.37771e+06   5.37632e+06
          2.1   5.33318e+06    5.3815e+06   5.37933e+06   5.37778e+06   5.37644e+06
          2.2   5.33367e+06   5.38156e+06    5.3794e+06   5.37784e+06   5.37656e+06
          2.3   5.33377e+06   5.38161e+06   5.37945e+06    5.3779e+06   5.37667e+06
          2.4   5.33373e+06   5.38163e+06    5.3795e+06   5.37794e+06   5.37678e+06
          2.5   5.33368e+06   5.38109e+06   5.37954e+06   5.37798e+06   5.37688e+06
          2.6   5.33362e+06   5.37972e+06   5.37957e+06     5.378e+06   5.37698e+06
          2.7   5.33357e+06   5.37863e+06   5.37957e+06   5.37802e+06   5.37707e+06
          2.8   5.33353e+06   5.37529e+06   5.37923e+06   5.37803e+06   5.37716e+06
          2.9   5.33344e+06   5.35557e+06   5.37807e+06   5.37803e+06   5.37722e+06
            3   5.33331e+06   5.33494e+06   5.37695e+06   5.37794e+06   5.37732e+06
          3.1   5.33314e+06   5.33406e+06   5.37604e+06   5.37708e+06   5.37749e+06
          3.2   5.33294e+06   5.33393e+06   5.37467e+06   5.37498e+06   5.37596e+06
          3.3   5.33245e+06    5.3336e+06   5.36136e+06   5.37277e+06   5.37372e+06
          3.4   5.33146e+06    5.3329e+06   5.33844e+06   5.37144e+06   5.37215e+06
          3.5   5.33114e+06   5.33207e+06   5.33249e+06    5.3701e+06   5.37075e+06
          3.6   5.33059e+06   5.33126e+06    5.3311e+06   5.36487e+06   5.36679e+06
          3.7    5.3299e+06   5.33048e+06   5.32987e+06   5.34152e+06   5.34486e+06
          3.8   5.32913e+06   5.32967e+06   5.32857e+06   5.30852e+06   5.30339e+06
          3.9   5.32841e+06   5.32866e+06   5.32738e+06   5.29066e+06   5.28838e+06
            4    5.3277e+06   5.32749e+06   5.32561e+06   5.28781e+06    5.2881e+06
          4.1   5.32706e+06   5.32633e+06   5.31638e+06   5.28655e+06   5.28732e+06
          4.2   5.32663e+06   5.32535e+06   5.29699e+06   5.28584e+06   5.28673e+06
          4.3   5.32648e+06   5.32469e+06   5.28821e+06   5.28549e+06   5.28647e+06
          4.4   5.32643e+06   5.32396e+06   5.28723e+06   5.28535e+06   5.28631e+06
          4.5   5.32638e+06    5.3192e+06     5.287e+06   5.28523e+06   5.28625e+06
          4.6   5.32634e+06   5.30392e+06   5.28678e+06   5.28512e+06   5.28602e+06
          4.7   5.32629e+06    5.2912e+06   5.28654e+06   5.28491e+06   5.28587e+06
          4.8   5.32612e+06   5.28876e+06   5.28633e+06   5.28473e+06    5.2855e+06
          4.9   5.32564e+06   5.28836e+06   5.28625e+06   5.28442e+06    5.2853e+06
            5   5.32487e+06   5.28818e+06   5.28618e+06     5.284e+06   5.28496e+06
          5.1   5.32399e+06     5.288e+06   5.28601e+06   5.28364e+06   5.28455e+06
          5.2   5.32308e+06    5.2878e+06   5.28577e+06   5.28337e+06   5.28428e+06
          5.3   5.32211e+06    5.2876e+06    5.2855e+06   5.28324e+06   5.28399e+06
          5.4    5.3201e+06   5.28739e+06   5.28521e+06   5.28319e+06   5.28411e+06
          5.5   5.31154e+06   5.28715e+06   5.28491e+06   5.28309e+06   5.28389e+06
          5.6   5.28853e+06    5.2869e+06   5.28464e+06   5.28292e+06   5.28375e+06
          5.7   5.26462e+06   5.28662e+06   5.28446e+06   5.28268e+06   5.28352e+06
          5.8   5.25751e+06   5.28626e+06   5.28431e+06   5.28245e+06   5.28312e+06
          5.9   5.25633e+06   5.28577e+06   5.28411e+06    5.2822e+06   5.28313e+06
            6   5.25589e+06   5.28517e+06   5.28388e+06   5.28195e+06   5.28287e+06
          6.1   5.25552e+06   5.28458e+06   5.28362e+06   5.28169e+06   5.28267e+06
          6.2   5.25514e+06   5.28403e+06   5.28332e+06   5.28146e+06   5.28234e+06
          6.3   5.25474e+06   5.28335e+06   5.28291e+06   5.28118e+06   5.28214e+06
          6.4   5.25431e+06   5.28192e+06   5.28239e+06   5.28092e+06   5.28175e+06
          6.5   5.25384e+06   5.27758e+06   5.28179e+06   5.28069e+06   5.28141e+06
          6.6   5.25333e+06   5.26792e+06   5.28114e+06   5.28031e+06   5.28091e+06
          6.7   5.25276e+06   5.25753e+06   5.28043e+06    5.2797e+06   5.28057e+06
          6.8   5.25214e+06   5.25344e+06    5.2792e+06   5.27895e+06    5.2797e+06
          6.9   5.25146e+06   5.25235e+06   5.27589e+06     5.278e+06   5.27831e+06
            7   5.25067e+06   5.25155e+06   5.26794e+06    5.2769e+06   5.27609e+06
          7.1   5.24976e+06   5.25063e+06   5.25725e+06   5.27543e+06   5.27434e+06
          7.2   5.24881e+06   5.24959e+06    5.2509e+06   5.27246e+06   5.27273e+06
          7.3   5.24784e+06   5.24852e+06   5.24857e+06   5.26558e+06   5.26613e+06
          7.4   5.24682e+06   5.24744e+06   5.24705e+06   5.25158e+06   5.25179e+06
          7.5   5.24578e+06   5.24631e+06    5.2456e+06   5.23429e+06    5.2326e+06
          7.6   5.24475e+06   5.24511e+06   5.24375e+06   5.22285e+06   5.22236e+06
          7.7   5.24374e+06   5.24384e+06   5.24036e+06    5.2182e+06   5.21686e+06
          7.8   5.24281e+06   5.24261e+06   5.23352e+06   5.21649e+06   5.21656e+06
          7.9   5.24205e+06   5.24146e+06   5.22427e+06   5.21523e+06   5.21601e+06
            8   5.24146e+06   5.24021e+06   5.21807e+06    5.2144e+06   5.21491e+06
          8.1   5.24096e+06     5.238e+06    5.2158e+06    5.2137e+06   5.21361e+06
          8.2   5.24049e+06   5.23312e+06   5.21477e+06   5.21314e+06   5.21265e+06
          8.3   5.24003e+06   5.22514e+06   5.21402e+06   5.21249e+06   5.21144e+06
          8.4   5.23952e+06   5.21827e+06   5.21331e+06   5.21188e+06   5.21056e+06
          8.5   5.23891e+06   5.21518e+06   5.21264e+06    5.2112e+06    5.2105e+06
          8.6   5.23816e+06   5.21393e+06   5.21201e+06   5.21043e+06   5.21042e+06
          8.7   5.23729e+06   5.21315e+06   5.21136e+06   5.20947e+06   5.21027e+06
          8.8   5.23632e+06   5.21248e+06   5.21069e+06   5.20867e+06   5.20945e+06
          8.9   5.23516e+06   5.21181e+06   5.20999e+06   5.20794e+06   5.20814e+06
            9   5.23332e+06   5.21114e+06   5.20926e+06   5.20733e+06   5.20685e+06
          9.1   5.22941e+06   5.21046e+06   5.20853e+06   5.20684e+06   5.20555e+06
          9.2   5.22108e+06   5.20977e+06   5.20781e+06   5.20637e+06   5.20495e+06
          9.3   5.20813e+06   5.20907e+06    5.2071e+06   5.20564e+06   5.20469e+06
          9.4   5.19632e+06   5.20833e+06   5.20644e+06     5.205e+06   5.20475e+06
          9.5   5.19054e+06   5.20754e+06   5.20577e+06   5.20416e+06   5.20434e+06
          9.6   5.18834e+06    5.2067e+06   5.20512e+06   5.20342e+06    5.2038e+06
          9.7   5.18719e+06   5.20581e+06   5.20444e+06   5.20268e+06   5.20345e+06
          9.8   5.18629e+06   5.20491e+06   5.20376e+06   5.20196e+06   5.20274e+06
          9.9   5.18543e+06   5.20389e+06     5.203e+06   5.20123e+06   5.20154e+06
           10   5.18457e+06    5.2025e+06   5.20221e+06   5.20061e+06   5.19964e+06
         10.1   5.18367e+06   5.20006e+06   5.20137e+06   5.20003e+06   5.19872e+06
         10.2   5.18275e+06   5.19571e+06   5.20046e+06   5.19937e+06   5.19808e+06
         10.3   5.18181e+06   5.18966e+06   5.19945e+06   5.19849e+06    5.1984e+06
         10.4   5.18082e+06   5.18421e+06   5.19814e+06   5.19754e+06   5.19831e+06
         10.5   5.17979e+06   5.18108e+06     5.196e+06   5.19646e+06   5.19714e+06
         10.6    5.1787e+06   5.17938e+06    5.1922e+06   5.19529e+06   5.19504e+06
         10.7   5.17754e+06   5.17811e+06   5.18654e+06   5.19387e+06   5.19278e+06
         10.8   5.17633e+06   5.17686e+06    5.1807e+06   5.19155e+06   5.19155e+06
         10.9   5.17508e+06   5.17558e+06    5.1767e+06   5.18765e+06   5.18787e+06
           11   5.17381e+06   5.17428e+06   5.17431e+06   5.18086e+06   5.18174e+06
         11.1   5.17252e+06   5.17294e+06   5.17248e+06   5.17146e+06   5.17157e+06
         11.2   5.17124e+06   5.17157e+06   5.17056e+06   5.16202e+06    5.1614e+06
         11.3   5.16996e+06   5.17018e+06   5.16806e+06   5.15548e+06   5.15502e+06
         11.4   5.16873e+06   5.16877e+06    5.1643e+06   5.15181e+06   5.15112e+06
         11.5   5.16757e+06   5.16735e+06   5.15918e+06    5.1499e+06   5.15052e+06
         11.6   5.16651e+06   5.16581e+06    5.1539e+06   5.14831e+06   5.14861e+06
         11.7   5.16555e+06   5.16386e+06   5.15022e+06   5.14721e+06   5.14624e+06
         11.8   5.16465e+06   5.16092e+06   5.14804e+06   5.14625e+06   5.14484e+06
         11.9   5.16376e+06   5.15665e+06   5.14661e+06   5.14509e+06   5.14506e+06
           12   5.16286e+06   5.15176e+06    5.1454e+06   5.14387e+06   5.14456e+06
         12.1   5.16191e+06   5.14786e+06    5.1443e+06   5.14266e+06   5.14301e+06
         12.2   5.16091e+06   5.14545e+06   5.14321e+06    5.1416e+06   5.14047e+06
         12.3   5.15983e+06   5.14392e+06   5.14213e+06   5.14055e+06   5.13976e+06
         12.4   5.15866e+06   5.14271e+06   5.14106e+06   5.13934e+06   5.13997e+06
         12.5   5.15728e+06   5.14161e+06   5.13998e+06    5.1382e+06   5.13885e+06
         12.6   5.15545e+06   5.14053e+06   5.13889e+06   5.13705e+06   5.13661e+06
         12.7   5.15259e+06   5.13947e+06   5.13778e+06   5.13613e+06   5.13492e+06
         12.8   5.14784e+06    5.1384e+06   5.13669e+06   5.13516e+06     5.135e+06
         12.9   5.14093e+06   5.13732e+06    5.1356e+06   5.13395e+06   5.13472e+06
           13   5.13322e+06   5.13623e+06   5.13453e+06   5.13286e+06   5.13321e+06
         13.1   5.12711e+06   5.13512e+06   5.13347e+06   5.13184e+06   5.13117e+06
         13.2   5.12347e+06   5.13398e+06   5.13243e+06   5.13085e+06   5.12965e+06
         13.3   5.12133e+06   5.13282e+06   5.13138e+06   5.12985e+06   5.12951e+06
         13.4   5.11982e+06   5.13161e+06   5.13034e+06   5.12869e+06   5.12939e+06
         13.5   5.11853e+06   5.13029e+06   5.12926e+06   5.12757e+06   5.12824e+06
         13.6   5.11729e+06   5.12873e+06   5.12816e+06   5.12658e+06   5.12583e+06
         13.7   5.11605e+06   5.12665e+06   5.12703e+06   5.12566e+06   5.12437e+06
         13.8    5.1148e+06   5.12373e+06   5.12585e+06   5.12461e+06   5.12468e+06
         13.9   5.11353e+06   5.11995e+06   5.12457e+06   5.12341e+06   5.12411e+06
           14   5.11225e+06   5.11597e+06   5.12307e+06   5.12217e+06   5.12222e+06
         14.1   5.11094e+06   5.11269e+06   5.12111e+06   5.12097e+06   5.11998e+06
         14.2   5.10959e+06   5.11038e+06   5.11839e+06   5.11971e+06   5.11908e+06
         14.3   5.10821e+06   5.10863e+06   5.11481e+06   5.11802e+06   5.11875e+06
         14.4   5.10678e+06    5.1071e+06    5.1108e+06   5.11588e+06   5.11585e+06
         14.5   5.10532e+06   5.10561e+06   5.10722e+06   5.11281e+06    5.1124e+06
         14.6   5.10386e+06   5.10411e+06   5.10447e+06   5.10848e+06   5.10853e+06
         14.7   5.10239e+06   5.10261e+06   5.10229e+06    5.1027e+06   5.10337e+06
         14.8   5.10091e+06   5.10109e+06   5.10022e+06   5.09657e+06    5.0965e+06
         14.9   5.09944e+06   5.09955e+06    5.0979e+06   5.09119e+06   5.09009e+06
           15   5.09799e+06     5.098e+06   5.09502e+06   5.08735e+06   5.08768e+06
         15.1   5.09659e+06    5.0964e+06   5.09151e+06   5.08465e+06   5.08354e+06
         15.2   5.09525e+06   5.09469e+06   5.08778e+06   5.08283e+06     5.083e+06
         15.3   5.09396e+06   5.09272e+06    5.0845e+06   5.08114e+06   5.08125e+06
         15.4   5.09273e+06   5.09028e+06   5.08199e+06   5.07973e+06   5.07857e+06
         15.5   5.09152e+06   5.08722e+06   5.08008e+06   5.07837e+06   5.07843e+06
         15.6    5.0903e+06   5.08381e+06    5.0785e+06   5.07688e+06    5.0775e+06
         15.7   5.08908e+06   5.08059e+06   5.07704e+06   5.07546e+06   5.07475e+06
         15.8   5.08781e+06   5.07805e+06   5.07565e+06   5.07408e+06   5.07343e+06
         15.9    5.0865e+06    5.0761e+06   5.07428e+06   5.07275e+06   5.07336e+06
           16   5.08509e+06   5.07449e+06   5.07291e+06   5.07125e+06   5.07151e+06
         16.1   5.08351e+06   5.07304e+06   5.07154e+06   5.06987e+06   5.06941e+06
         16.2    5.0816e+06   5.07166e+06   5.07017e+06   5.06856e+06   5.06744e+06
         16.3   5.07903e+06   5.07031e+06   5.06881e+06   5.06721e+06   5.06772e+06
         16.4   5.07551e+06   5.06896e+06   5.06747e+06    5.0658e+06   5.06612e+06
         16.5   5.07096e+06   5.06761e+06    5.0661e+06   5.06448e+06   5.06342e+06
         16.6   5.06589e+06   5.06626e+06   5.06474e+06   5.06327e+06   5.06283e+06
         16.7   5.06132e+06   5.06489e+06   5.06341e+06   5.06189e+06   5.06256e+06
         16.8   5.05784e+06   5.06353e+06   5.06209e+06   5.06048e+06   5.06075e+06
         16.9   5.05533e+06   5.06213e+06   5.06077e+06   5.05916e+06   5.05806e+06
           17   5.05342e+06   5.06067e+06   5.05944e+06   5.05798e+06   5.05764e+06
         17.1   5.05177e+06   5.05913e+06   5.05812e+06   5.05656e+06    5.0572e+06
         17.2   5.05026e+06   5.05742e+06   5.05678e+06   5.05521e+06   5.05548e+06
         17.3   5.04877e+06   5.05538e+06   5.05539e+06   5.05387e+06   5.05299e+06
         17.4   5.04728e+06   5.05291e+06   5.05399e+06   5.05264e+06   5.05146e+06
         17.5   5.04579e+06   5.05005e+06   5.05249e+06   5.05132e+06   5.05118e+06
         17.6   5.04428e+06   5.04702e+06   5.05081e+06   5.04993e+06   5.05048e+06
         17.7   5.04278e+06   5.04427e+06   5.04886e+06   5.04847e+06   5.04757e+06
         17.8   5.04126e+06   5.04196e+06   5.04649e+06   5.04696e+06   5.04627e+06
         17.9   5.03969e+06   5.04001e+06   5.04368e+06   5.04516e+06   5.04578e+06
           18    5.0381e+06   5.03826e+06   5.04064e+06   5.04294e+06   5.04222e+06
         18.1   5.03649e+06   5.03661e+06   5.03776e+06   5.04033e+06   5.04067e+06
         18.2   5.03488e+06   5.03496e+06   5.03521e+06   5.03688e+06   5.03629e+06
         18.3   5.03327e+06   5.03331e+06   5.03296e+06   5.03275e+06   5.03338e+06
         18.4   5.03166e+06   5.03167e+06   5.03079e+06   5.02848e+06   5.02747e+06
         18.5   5.03006e+06   5.03002e+06    5.0285e+06   5.02443e+06   5.02434e+06
         18.6   5.02847e+06   5.02833e+06   5.02598e+06   5.02113e+06   5.02146e+06
         18.7    5.0269e+06   5.02661e+06   5.02315e+06   5.01863e+06   5.01871e+06
         18.8   5.02538e+06   5.02478e+06   5.02024e+06   5.01651e+06   5.01556e+06
         18.9   5.02391e+06   5.02278e+06   5.01752e+06   5.01478e+06   5.01513e+06
           19   5.02245e+06    5.0205e+06   5.01518e+06   5.01292e+06   5.01298e+06
         19.1   5.02102e+06   5.01794e+06   5.01315e+06   5.01137e+06   5.01019e+06
         19.2   5.01957e+06   5.01522e+06   5.01137e+06   5.00976e+06   5.01014e+06
         19.3   5.01812e+06   5.01259e+06    5.0097e+06   5.00814e+06   5.00867e+06
         19.4   5.01665e+06   5.01027e+06   5.00811e+06   5.00657e+06   5.00545e+06
         19.5   5.01514e+06   5.00825e+06   5.00654e+06   5.00508e+06   5.00434e+06
         19.6   5.01354e+06   5.00648e+06   5.00498e+06   5.00357e+06   5.00379e+06
         19.7   5.01178e+06   5.00482e+06   5.00342e+06   5.00192e+06    5.0025e+06
         19.8   5.00975e+06   5.00324e+06   5.00189e+06    5.0003e+06   5.00027e+06
         19.9   5.00729e+06   5.00169e+06   5.00035e+06   4.99887e+06   4.99778e+06
           20   5.00431e+06   5.00015e+06   4.99879e+06   4.99741e+06   4.99661e+06
         20.1   5.00084e+06   4.99863e+06   4.99726e+06   4.99578e+06   4.99625e+06
         20.2   4.99719e+06   4.99709e+06   4.99572e+06   4.99418e+06    4.9944e+06
         20.3   4.99374e+06   4.99555e+06   4.99421e+06   4.99265e+06   4.99164e+06
         20.4   4.99083e+06   4.99399e+06   4.99269e+06   4.99135e+06   4.99052e+06
         20.5   4.98843e+06   4.99242e+06   4.99118e+06   4.98969e+06   4.98961e+06
         20.6   4.98641e+06   4.99079e+06   4.98967e+06   4.98814e+06   4.98881e+06
         20.7   4.98461e+06    4.9891e+06   4.98816e+06   4.98662e+06    4.9865e+06
         20.8    4.9829e+06   4.98724e+06   4.98665e+06   4.98523e+06     4.984e+06
         20.9   4.98125e+06    4.9852e+06   4.98508e+06   4.98376e+06   4.98333e+06
           21    4.9796e+06   4.98292e+06   4.98349e+06   4.98215e+06   4.98277e+06
         21.1   4.97796e+06   4.98045e+06   4.98181e+06   4.98058e+06   4.97985e+06
         21.2   4.97633e+06   4.97796e+06      4.98e+06   4.97922e+06   4.97876e+06
         21.3   4.97468e+06   4.97559e+06   4.97799e+06   4.97743e+06   4.97807e+06
         21.4   4.97302e+06   4.97344e+06   4.97575e+06   4.97568e+06   4.97478e+06
         21.5   4.97133e+06   4.97148e+06   4.97332e+06   4.97389e+06   4.97398e+06
         21.6   4.96963e+06   4.96965e+06   4.97081e+06   4.97168e+06   4.97168e+06
         21.7   4.96794e+06   4.96788e+06   4.96834e+06   4.96907e+06   4.96862e+06
         21.8   4.96623e+06   4.96612e+06   4.96603e+06   4.96616e+06   4.96669e+06
         21.9   4.96451e+06   4.96439e+06   4.96384e+06   4.96293e+06   4.96194e+06
           22   4.96281e+06   4.96266e+06   4.96167e+06   4.95977e+06   4.96008e+06
         22.1   4.96113e+06   4.96091e+06   4.95944e+06   4.95654e+06   4.95548e+06
         22.2   4.95945e+06   4.95915e+06   4.95708e+06   4.95391e+06   4.95432e+06
         22.3   4.95778e+06   4.95733e+06   4.95461e+06   4.95142e+06   4.95034e+06
         22.4   4.95614e+06   4.95541e+06   4.95216e+06   4.94943e+06   4.94996e+06
         22.5   4.95453e+06   4.95338e+06    4.9498e+06   4.94747e+06   4.94687e+06
         22.6   4.95292e+06   4.95119e+06   4.94764e+06   4.94581e+06   4.94541e+06
         22.7   4.95133e+06   4.94888e+06   4.94566e+06   4.94394e+06   4.94448e+06
         22.8   4.94973e+06   4.94653e+06   4.94382e+06   4.94219e+06   4.94128e+06
         22.9   4.94813e+06   4.94425e+06   4.94204e+06   4.94062e+06   4.94093e+06
           23    4.9465e+06   4.94212e+06   4.94032e+06   4.93881e+06   4.93893e+06
         23.1   4.94482e+06   4.94016e+06   4.93863e+06   4.93718e+06   4.93611e+06
         23.2   4.94307e+06   4.93834e+06   4.93696e+06   4.93553e+06   4.93597e+06
         23.3   4.94117e+06   4.93657e+06   4.93527e+06   4.93375e+06   4.93354e+06
         23.4   4.93905e+06   4.93488e+06   4.93362e+06    4.9321e+06   4.93105e+06
         23.5   4.93668e+06    4.9332e+06   4.93196e+06   4.93054e+06   4.93103e+06
         23.6   4.93401e+06   4.93154e+06   4.93029e+06   4.92876e+06   4.92865e+06
         23.7   4.93114e+06   4.92987e+06   4.92865e+06   4.92719e+06   4.92608e+06
         23.8   4.92824e+06   4.92822e+06   4.92698e+06   4.92556e+06   4.92603e+06
         23.9    4.9255e+06   4.92655e+06   4.92534e+06   4.92385e+06   4.92395e+06
           24   4.92302e+06   4.92487e+06    4.9237e+06   4.92224e+06   4.92114e+06
         24.1   4.92082e+06   4.92317e+06   4.92205e+06   4.92062e+06   4.92117e+06
         24.2   4.91882e+06   4.92142e+06   4.92041e+06   4.91891e+06   4.91856e+06
         24.3   4.91696e+06   4.91958e+06   4.91877e+06   4.91748e+06   4.91679e+06
         24.4   4.91517e+06   4.91766e+06   4.91711e+06   4.91572e+06   4.91629e+06
         24.5   4.91342e+06   4.91562e+06   4.91543e+06   4.91411e+06   4.91306e+06
         24.6   4.91167e+06   4.91345e+06   4.91369e+06   4.91255e+06   4.91271e+06
         24.7   4.90995e+06   4.91122e+06   4.91189e+06   4.91074e+06   4.91131e+06
         24.8   4.90821e+06     4.909e+06   4.90999e+06   4.90907e+06   4.90798e+06
         24.9   4.90646e+06   4.90686e+06   4.90796e+06   4.90739e+06   4.90784e+06
           25   4.90471e+06   4.90484e+06   4.90581e+06   4.90542e+06   4.90504e+06
         25.1   4.90296e+06    4.9029e+06   4.90358e+06   4.90344e+06   4.90297e+06
         25.2    4.9012e+06   4.90104e+06   4.90133e+06   4.90123e+06   4.90159e+06
         25.3   4.89942e+06   4.89922e+06   4.89912e+06   4.89878e+06   4.89798e+06
         25.4   4.89764e+06   4.89743e+06   4.89696e+06    4.8963e+06   4.89671e+06
         25.5   4.89587e+06   4.89563e+06   4.89484e+06   4.89342e+06   4.89255e+06
         25.6   4.89412e+06   4.89383e+06   4.89269e+06    4.8908e+06   4.89129e+06
         25.7   4.89236e+06     4.892e+06   4.89054e+06   4.88819e+06   4.88716e+06
         25.8    4.8906e+06   4.89017e+06    4.8883e+06   4.88596e+06   4.88644e+06
         25.9   4.88887e+06   4.88828e+06   4.88606e+06   4.88368e+06   4.88281e+06
           26   4.88715e+06   4.88632e+06   4.88385e+06    4.8818e+06   4.88143e+06
         26.1   4.88544e+06   4.88428e+06   4.88173e+06   4.87983e+06   4.88029e+06
         26.2   4.88375e+06   4.88217e+06   4.87971e+06   4.87794e+06   4.87693e+06
         26.3   4.88206e+06   4.88002e+06   4.87777e+06   4.87624e+06   4.87676e+06
         26.4   4.88036e+06   4.87786e+06    4.8759e+06   4.87437e+06   4.87433e+06
         26.5   4.87864e+06   4.87579e+06   4.87408e+06   4.87266e+06   4.87176e+06
         26.6    4.8769e+06   4.87379e+06    4.8723e+06   4.87091e+06   4.87135e+06
         26.7    4.8751e+06   4.87187e+06   4.87055e+06   4.86922e+06   4.86972e+06
         26.8   4.87323e+06   4.87002e+06   4.86878e+06   4.86728e+06   4.86672e+06
         26.9   4.87122e+06   4.86822e+06   4.86703e+06   4.86576e+06   4.86463e+06
           27   4.86907e+06   4.86646e+06   4.86532e+06   4.86393e+06   4.86437e+06
         27.1   4.86677e+06    4.8647e+06   4.86355e+06   4.86209e+06   4.86221e+06
         27.2   4.86433e+06   4.86296e+06   4.86181e+06   4.86044e+06   4.85935e+06
         27.3   4.86183e+06   4.86122e+06   4.86007e+06   4.85874e+06   4.85894e+06
         27.4   4.85938e+06   4.85949e+06   4.85834e+06   4.85689e+06   4.85717e+06
         27.5   4.85705e+06   4.85773e+06   4.85662e+06    4.8552e+06   4.85409e+06
         27.6   4.85486e+06   4.85596e+06   4.85488e+06   4.85351e+06   4.85395e+06
         27.7   4.85281e+06   4.85416e+06   4.85316e+06    4.8517e+06    4.8514e+06
         27.8   4.85085e+06   4.85233e+06   4.85144e+06   4.85002e+06   4.84988e+06
         27.9   4.84898e+06   4.85042e+06   4.84969e+06   4.84833e+06   4.84856e+06
           28   4.84715e+06   4.84845e+06   4.84794e+06   4.84658e+06   4.84554e+06
         28.1   4.84534e+06   4.84642e+06   4.84616e+06   4.84494e+06   4.84509e+06
         28.2   4.84356e+06   4.84433e+06   4.84432e+06   4.84309e+06   4.84287e+06
         28.3   4.84176e+06   4.84224e+06   4.84244e+06   4.84139e+06   4.84072e+06
         28.4   4.83997e+06   4.84018e+06    4.8405e+06   4.83962e+06   4.84017e+06
         28.5   4.83816e+06   4.83818e+06   4.83847e+06   4.83775e+06   4.83685e+06
         28.6   4.83636e+06   4.83622e+06   4.83639e+06   4.83572e+06   4.83552e+06
         28.7   4.83456e+06   4.83433e+06   4.83429e+06   4.83365e+06   4.83312e+06
         28.8   4.83274e+06   4.83246e+06   4.83218e+06   4.83155e+06   4.83209e+06
         28.9   4.83092e+06   4.83061e+06   4.83014e+06    4.8291e+06   4.82813e+06
           29    4.8291e+06   4.82876e+06   4.82802e+06    4.8268e+06   4.82732e+06
         29.1    4.8273e+06   4.82694e+06   4.82596e+06   4.82436e+06   4.82348e+06
         29.2   4.82549e+06    4.8251e+06   4.82387e+06   4.82214e+06   4.82264e+06
         29.3   4.82369e+06   4.82326e+06   4.82176e+06    4.8198e+06   4.81912e+06
         29.4    4.8219e+06   4.82134e+06   4.81965e+06   4.81771e+06   4.81766e+06
         29.5   4.82011e+06   4.81941e+06   4.81755e+06   4.81574e+06   4.81626e+06
         29.6   4.81835e+06   4.81743e+06   4.81551e+06   4.81368e+06   4.81279e+06
         29.7   4.81658e+06   4.81541e+06   4.81351e+06   4.81191e+06   4.81232e+06
         29.8   4.81483e+06   4.81335e+06   4.81157e+06   4.80996e+06   4.80981e+06
         29.9   4.81305e+06   4.81131e+06   4.80965e+06   4.80825e+06   4.80785e+06
           30   4.81128e+06   4.80929e+06   4.80778e+06   4.80634e+06   4.80663e+06
         30.1   4.80948e+06   4.80732e+06   4.80596e+06   4.80455e+06   4.80355e+06
         30.2   4.80768e+06    4.8054e+06   4.80413e+06   4.80275e+06   4.80325e+06
         30.3   4.80579e+06   4.80351e+06   4.80232e+06   4.80097e+06    4.8015e+06
         30.4   4.80382e+06   4.80164e+06   4.80052e+06    4.7991e+06   4.79813e+06
         30.5   4.80175e+06   4.79983e+06   4.79872e+06   4.79738e+06   4.79771e+06
         30.6   4.79961e+06   4.79802e+06   4.79695e+06   4.79549e+06   4.79549e+06
         30.7   4.79737e+06   4.79622e+06   4.79514e+06   4.79377e+06    4.7937e+06
         30.8   4.79512e+06   4.79442e+06   4.79334e+06   4.79192e+06   4.79242e+06
         30.9   4.79289e+06   4.79263e+06   4.79154e+06   4.79016e+06    4.7891e+06
           31    4.7907e+06   4.79084e+06   4.78976e+06   4.78837e+06   4.78883e+06
         31.1    4.7886e+06   4.78902e+06   4.78799e+06   4.78657e+06   4.78682e+06
         31.2   4.78658e+06   4.78719e+06   4.78621e+06   4.78483e+06   4.78373e+06
         31.3    4.7846e+06   4.78532e+06   4.78441e+06   4.78305e+06   4.78197e+06
         31.4   4.78269e+06   4.78341e+06   4.78263e+06   4.78128e+06   4.78182e+06
         31.5   4.78082e+06   4.78148e+06   4.78083e+06   4.77948e+06   4.77973e+06
         31.6   4.77897e+06    4.7795e+06   4.77904e+06   4.77775e+06   4.77662e+06
         31.7   4.77713e+06   4.77749e+06   4.77716e+06    4.7764e+06   4.77537e+06
         31.8   4.77531e+06   4.77548e+06   4.77527e+06    4.7742e+06   4.77379e+06
         31.9   4.77348e+06   4.77349e+06   4.77335e+06   4.77228e+06   4.77274e+06
           32   4.77165e+06   4.77154e+06    4.7714e+06   4.77042e+06    4.7694e+06
         32.1    4.7698e+06   4.76959e+06   4.76937e+06   4.76851e+06   4.76904e+06
         32.2   4.76796e+06   4.76768e+06   4.76734e+06    4.7664e+06   4.76597e+06
         32.3   4.76612e+06    4.7658e+06   4.76531e+06   4.76448e+06   4.76419e+06
         32.4   4.76427e+06   4.76394e+06   4.76329e+06   4.76217e+06   4.76249e+06
         32.5   4.76244e+06   4.76207e+06   4.76128e+06   4.76008e+06   4.75917e+06
         32.6    4.7606e+06    4.7602e+06   4.75925e+06    4.7578e+06   4.75819e+06
         32.7   4.75875e+06   4.75834e+06   4.75721e+06    4.7557e+06   4.75483e+06
         32.8   4.75693e+06   4.75645e+06   4.75517e+06   4.75355e+06   4.75344e+06
         32.9   4.75513e+06   4.75456e+06   4.75315e+06   4.75148e+06    4.7514e+06
           33    4.7533e+06   4.75264e+06   4.75113e+06   4.74951e+06   4.74869e+06
         33.1   4.75149e+06   4.75068e+06   4.74914e+06   4.74752e+06   4.74805e+06
         33.2   4.74968e+06   4.74869e+06   4.74717e+06   4.74555e+06   4.74481e+06
         33.3   4.74789e+06    4.7467e+06   4.74522e+06   4.74377e+06   4.74416e+06
         33.4   4.74609e+06   4.74472e+06   4.74333e+06    4.7418e+06   4.74169e+06
         33.5   4.74425e+06   4.74276e+06   4.74144e+06   4.73997e+06   4.73968e+06
         33.6   4.74242e+06   4.74081e+06   4.73957e+06   4.73821e+06   4.73763e+06
         33.7   4.74055e+06   4.73888e+06   4.73772e+06    4.7364e+06   4.73691e+06
         33.8   4.73865e+06   4.73699e+06   4.73589e+06   4.73453e+06    4.7335e+06
         33.9   4.73671e+06   4.73513e+06   4.73404e+06   4.73274e+06   4.73308e+06
           34   4.73469e+06   4.73328e+06   4.73221e+06   4.73078e+06   4.73132e+06
         34.1   4.73263e+06   4.73145e+06   4.73039e+06   4.72904e+06   4.72807e+06
         34.2   4.73053e+06   4.72961e+06   4.72856e+06   4.72721e+06   4.72773e+06
         34.3   4.72841e+06   4.72777e+06   4.72673e+06   4.72533e+06   4.72458e+06
         34.4   4.72632e+06   4.72595e+06   4.72492e+06   4.72358e+06   4.72332e+06
         34.5   4.72425e+06   4.72411e+06   4.72309e+06   4.72172e+06   4.72201e+06
         34.6   4.72221e+06   4.72225e+06   4.72127e+06   4.71989e+06    4.7192e+06
         34.7   4.72021e+06    4.7204e+06   4.71945e+06   4.71814e+06   4.71782e+06
         34.8   4.71827e+06   4.71853e+06   4.71764e+06   4.71628e+06   4.71684e+06
         34.9   4.71635e+06   4.71661e+06    4.7158e+06   4.71447e+06   4.71345e+06
           35   4.71447e+06   4.71468e+06   4.71398e+06   4.71266e+06   4.71325e+06
         35.1   4.71262e+06   4.71273e+06   4.71214e+06   4.71081e+06   4.70996e+06
         35.2   4.71074e+06   4.71077e+06   4.71024e+06   4.70908e+06   4.70927e+06
         35.3   4.70888e+06   4.70881e+06   4.70834e+06   4.70712e+06   4.70668e+06