# Probe 0 (1 0 0)
# Probe 1 (140 0 0)
# Probe 2 (200 0 0)
# Probe 3 (249.6 0 0)
# Probe 4 (255 0 0)
#       Probe             0             1             2             3             4
#        Time
            0        292.68        292.68        292.68        292.68        292.68
          0.1        292.68        292.68        292.68       291.703        291.71
          0.2        292.68        292.68        292.68       291.697       291.675
          0.3        292.68        292.68        292.68       291.692       291.677
          0.4        292.68        292.68       292.549       291.685       291.697
          0.5        292.68        292.68       291.732       291.698        291.68
          0.6        292.68        292.68       291.744       291.724       291.709
          0.7        292.68        292.68       291.765        291.75        291.75
          0.8        292.68        292.64       291.784        291.77       291.751
          0.9        292.68        291.81       291.802       291.783       291.796
            1        292.68       291.795       291.818       291.796       291.775
          1.1        292.68       291.813       291.834       291.811        291.81
          1.2        292.68       291.829       291.845       291.818       291.832
          1.3        292.68       291.844       291.856       291.828       291.841
          1.4        292.68       291.859       291.867       291.839       291.846
          1.5        292.68       291.871       291.877       291.851       291.847
          1.6        292.68       291.881       291.887       291.863       291.848
          1.7       292.673        291.89       291.897       291.875       291.853
          1.8       292.535         291.9       291.906       291.886       291.864
          1.9       291.702       291.909       291.916       291.896       291.876
            2       291.079       291.918       291.924       291.906       291.885
          2.1       291.136       291.927       291.933       291.914       291.895
          2.2       291.161       291.936       291.941       291.923       291.904
          2.3       291.179       291.944       291.949       291.931       291.913
          2.4       291.195       291.952       291.957       291.939       291.922
          2.5        291.21       291.951       291.964       291.947       291.931
          2.6       291.225       291.938       291.972       291.954        291.94
          2.7        291.24        291.93       291.978       291.961       291.948
          2.8       291.255       291.887        291.98       291.968       291.956
          2.9       291.268       291.601       291.969       291.975       291.964
            3       291.281       291.305        291.96        291.98       291.971
          3.1       291.293       291.306       291.953       291.974        291.98
          3.2       291.303       291.317       291.939       291.949       291.964
          3.3       291.308       291.324       291.746       291.922       291.937
          3.4       291.301       291.321       291.408       291.906       291.917
          3.5       291.302       291.315       291.325       291.889       291.899
          3.6         291.3       291.308        291.31       291.814       291.844
          3.7       291.296       291.303       291.297       291.468       291.519
          3.8        291.29       291.296       291.283       290.979       290.902
          3.9       291.285       291.287       291.272       290.719       290.685
            4       291.281       291.276       291.251       290.685        290.69
          4.1       291.278       291.265        291.12       290.675       290.688
          4.2        291.28       291.259       290.839       290.678       290.692
          4.3        291.29       291.261       290.723        290.69       290.705
          4.4       291.302       291.263       290.727       290.707       290.722
          4.5       291.313       291.205       290.742       290.724        290.74
          4.6       291.325        290.99       290.757       290.741       290.755
          4.7       291.337       290.815       290.772       290.756       290.771
          4.8       291.346       290.796       290.787       290.771       290.783
          4.9       291.351       290.807       290.803       290.784       290.798
            5       291.351       290.822       290.819       290.795        290.81
          5.1        291.35       290.837       290.834       290.807       290.821
          5.2       291.348       290.851       290.847        290.82       290.834
          5.3       291.345       290.865       290.859       290.835       290.847
          5.4       291.327       290.878       290.871       290.851       290.865
          5.5        291.21       290.891       290.883       290.866       290.879
          5.6       290.877       290.903       290.895       290.879       290.893
          5.7       290.534       290.914       290.908       290.892       290.905
          5.8       290.447       290.925       290.921       290.904       290.915
          5.9        290.45       290.933       290.934       290.915        290.93
            6       290.464       290.939       290.945       290.927       290.942
          6.1       290.479       290.945       290.956       290.938       290.954
          6.2       290.494       290.952       290.966       290.949       290.963
          6.3       290.508       290.956       290.975        290.96       290.975
          6.4       290.521       290.949       290.981        290.97       290.984
          6.5       290.533       290.898       290.986       290.981       290.993
          6.6       290.544       290.767        290.99       290.989       290.999
          6.7       290.554       290.626       290.993       290.993       291.007
          6.8       290.563       290.582       290.988       290.995       291.008
          6.9       290.571       290.583       290.951       290.994           291
            7       290.574       290.587       290.842       290.989       290.978
          7.1       290.574       290.586       290.691       290.977       290.961
          7.2       290.571       290.581       290.606        290.94       290.945
          7.3       290.567       290.576       290.581       290.844       290.854
          7.4       290.563       290.571       290.569       290.641       290.645
          7.5       290.558       290.565       290.558       290.389       290.364
          7.6       290.554       290.557       290.541       290.227        290.22
          7.7        290.55        290.55       290.501        290.17        290.15
          7.8       290.548       290.543       290.409       290.158        290.16
          7.9        290.55       290.539       290.283       290.156       290.169
            8       290.557       290.536       290.207       290.163       290.172
          8.1       290.566       290.519       290.192       290.172       290.172
          8.2       290.575       290.462       290.197       290.184       290.178
          8.3       290.584       290.358       290.206       290.195        290.18
          8.4       290.593       290.272       290.215       290.205       290.186
          8.5         290.6       290.244       290.225       290.215       290.205
          8.6       290.604       290.245       290.235       290.223       290.224
          8.7       290.607       290.252       290.244       290.228       290.241
          8.8       290.608       290.261       290.253       290.235       290.248
          8.9       290.606        290.27       290.262       290.243       290.247
            9       290.593       290.279       290.269       290.253       290.247
          9.1       290.549       290.287       290.277       290.264       290.246
          9.2       290.438       290.295       290.285       290.276       290.255
          9.3       290.257       290.303       290.292       290.283        290.27
          9.4       290.096        290.31         290.3       290.292       290.289
          9.5       290.028       290.316       290.308       290.297       290.301
          9.6       290.016       290.321       290.316       290.304       290.311
          9.7       290.019       290.326       290.323        290.31       290.323
          9.8       290.027       290.329       290.331       290.317        290.33
          9.9       290.034       290.331       290.336       290.323       290.329
           10       290.042       290.327       290.342       290.331       290.317
         10.1       290.049       290.307       290.346       290.339        290.32
         10.2       290.055       290.258       290.349       290.346       290.327
         10.3        290.06       290.183        290.35       290.349       290.349
         10.4       290.065       290.118       290.346       290.351       290.364
         10.5       290.068       290.088       290.329        290.35       290.362
         10.6        290.07        290.08       290.287       290.348       290.346
         10.7       290.069       290.078       290.215        290.34       290.325
         10.8       290.066       290.074       290.139       290.318       290.319
         10.9       290.062       290.069       290.091        290.27       290.275
           11       290.057       290.063       290.069       290.178       290.193
         11.1       290.051       290.057       290.055       290.047        290.05
         11.2       290.046        290.05       290.039       289.915       289.907
         11.3       290.041       290.043       290.015        289.83       289.824
         11.4       290.037       290.036       289.972       289.789        289.78
         11.5       290.034        290.03       289.909       289.777       289.788
         11.6       290.034       290.023       289.845       289.772       289.778
         11.7       290.037        290.01       289.807       289.774       289.761
         11.8       290.041       289.983       289.794        289.78        289.76
         11.9       290.045       289.935       289.792       289.783       289.784
           12        290.05       289.879       289.794       289.784       289.796
         12.1       290.053       289.838       289.797       289.786       289.793
         12.2       290.055       289.821       289.801        289.79       289.774
         12.3       290.056       289.817       289.804       289.794       289.783
         12.4       290.056       289.818       289.807       289.795       289.806
         12.5       290.052       289.821       289.811       289.797       289.809
         12.6       290.041       289.824       289.813       289.799       289.794
         12.7       290.014       289.827       289.816       289.805       289.787
         12.8       289.958        289.83       289.818       289.809       289.808
         12.9       289.869       289.833       289.821        289.81       289.823
           13       289.768       289.835       289.824       289.813       289.819
         13.1       289.693       289.837       289.826       289.816       289.807
         13.2       289.657       289.838       289.829        289.82       289.803
         13.3       289.645       289.839       289.832       289.823       289.819
         13.4       289.643       289.839       289.835       289.824       289.836
         13.5       289.644       289.838       289.837       289.825       289.837
         13.6       289.645       289.832       289.838       289.829       289.818
         13.7       289.647       289.818       289.839       289.833       289.814
         13.8       289.648       289.792       289.839       289.835       289.837
         13.9       289.649       289.751       289.837       289.834       289.846
           14       289.649       289.709       289.832       289.833       289.835
         14.1       289.648       289.677       289.819       289.832       289.818
         14.2       289.647        289.66       289.794        289.83       289.821
         14.3       289.644       289.651       289.755        289.82       289.833
         14.4       289.639       289.644       289.709       289.802       289.804
         14.5       289.634       289.638        289.67        289.77       289.765
         14.6       289.627       289.631       289.643       289.717        289.72
         14.7       289.621       289.624       289.625       289.642       289.654
         14.8       289.614       289.617       289.609       289.562       289.563
         14.9       289.608       289.609       289.589       289.495       289.479
           15       289.602       289.602       289.561       289.452       289.459
         15.1       289.597       289.594       289.523       289.428       289.412
         15.2       289.594       289.585       289.483       289.419       289.423
         15.3       289.592       289.572       289.451       289.412       289.415
         15.4       289.591       289.553       289.431        289.41       289.394
         15.5       289.591       289.524       289.421       289.409       289.412
         15.6       289.591        289.49       289.417       289.407       289.418
         15.7        289.59       289.459       289.415       289.405       289.395
         15.8       289.589       289.439       289.413       289.404       289.395
         15.9       289.587       289.429       289.412       289.403       289.414
           16       289.584       289.423       289.411         289.4       289.405
         16.1       289.578       289.421        289.41       289.398       289.393
         16.2       289.566       289.419       289.408       289.398       289.382
         16.3       289.544       289.418       289.407       289.397       289.406
         16.4       289.508       289.417       289.406       289.395       289.401
         16.5       289.455       289.416       289.404       289.394       289.379
         16.6       289.395       289.414       289.403       289.395       289.389
         16.7       289.342       289.412       289.401       289.393       289.405
         16.8       289.308       289.411         289.4        289.39       289.396
         16.9       289.289       289.408       289.399       289.389       289.373
           17        289.28       289.405       289.398        289.39       289.386
         17.1       289.275         289.4       289.396       289.387       289.399
         17.2       289.272       289.392       289.395       289.385       289.391
         17.3       289.269        289.38       289.392       289.384       289.371
         17.4       289.267        289.36       289.389       289.383       289.366
         17.5       289.264       289.334       289.385       289.382       289.381
         17.6        289.26       289.306       289.377       289.379       289.389
         17.7       289.257       289.282       289.365       289.374       289.362
         17.8       289.253       289.265       289.346       289.369       289.359
         17.9       289.247       289.253        289.32       289.358        289.37
           18       289.241       289.244        289.29       289.341       289.331
         18.1       289.234       289.237       289.262       289.317       289.324
         18.2       289.226       289.229       289.239       289.279       289.271
         18.3       289.219        289.22       289.221       289.231       289.242
         18.4       289.211       289.212       289.204        289.18       289.166
         18.5       289.204       289.204       289.186       289.134       289.134
         18.6       289.197       289.195       289.164         289.1       289.107
         18.7        289.19       289.186       289.138        289.08       289.082
         18.8       289.185       289.176       289.111       289.065       289.052
         18.9        289.18       289.163       289.087       289.058       289.065
           19       289.177       289.146        289.07       289.049       289.051
         19.1       289.173       289.125       289.058       289.045       289.027
         19.2        289.17       289.102        289.05        289.04       289.047
         19.3       289.166        289.08       289.044       289.034       289.044
         19.4       289.162       289.063       289.039        289.03       289.014
         19.5       289.158       289.052       289.035       289.027       289.017
         19.6       289.152       289.044       289.031       289.024       289.029
         19.7       289.143       289.038       289.026       289.018       289.028
         19.8        289.13       289.033       289.022       289.012       289.013
         19.9        289.11       289.029       289.018        289.01       288.994
           20       289.082       289.025       289.014       289.007       288.996
         20.1       289.046       289.021        289.01       289.001        289.01
         20.2       289.008       289.016       289.005       288.996       289.001
         20.3       288.973       289.012       289.001       288.992       288.977
         20.4       288.947       289.007       288.997       288.991        288.98
         20.5        288.93       289.002       288.993       288.985       288.985
         20.6       288.918       288.996       288.989        288.98       288.992
         20.7       288.911       288.989       288.985       288.976       288.976
         20.8       288.904        288.98       288.981       288.974       288.956
         20.9       288.899       288.967       288.976        288.97       288.965
           21       288.893        288.95        288.97       288.964       288.976
         21.1       288.888       288.931       288.963       288.959       288.949
         21.2       288.882       288.911       288.954       288.957       288.951
         21.3       288.876       288.893       288.941       288.947       288.959
         21.4        288.87       288.878       288.924       288.939       288.926
         21.5       288.863       288.867       288.905       288.929       288.932
         21.6       288.855       288.857       288.883       288.912       288.914
         21.7       288.847       288.848       288.863       288.889       288.883
         21.8       288.839       288.839       288.844       288.861       288.871
         21.9       288.831        288.83       288.828       288.827       288.813
           22       288.822       288.821       288.812       288.795       288.802
         22.1       288.814       288.812       288.795       288.762       288.747
         22.2       288.806       288.803       288.776       288.739       288.747
         22.3       288.799       288.793       288.756       288.719       288.703
         22.4       288.792       288.782       288.737       288.707       288.717
         22.5       288.786       288.769       288.719       288.696       288.688
         22.6        288.78       288.754       288.704        288.69       288.685
         22.7       288.774       288.737       288.693       288.681       288.691
         22.8       288.769       288.719       288.684       288.673        288.66
         22.9       288.763       288.703       288.676       288.669       288.675
           23       288.757       288.689       288.669        288.66       288.664
         23.1        288.75       288.678       288.663       288.655       288.639
         23.2       288.742       288.669       288.657       288.649       288.658
         23.3       288.731       288.662        288.65       288.641       288.639
         23.4       288.717       288.655       288.644       288.635        288.62
         23.5       288.699       288.649       288.638       288.631        288.64
         23.6       288.676       288.642       288.632       288.623       288.623
         23.7        288.65       288.636       288.626       288.618       288.602
         23.8       288.623        288.63        288.62       288.612       288.621
         23.9       288.599       288.624       288.614       288.605       288.609
           24        288.58       288.617       288.608         288.6       288.584
         24.1       288.566        288.61       288.602       288.594       288.605
         24.2       288.554       288.602       288.596       288.587       288.583
         24.3       288.545       288.593        288.59       288.585       288.575
         24.4       288.538       288.583       288.584       288.577       288.587
         24.5        288.53        288.57       288.577       288.571       288.556
         24.6       288.523       288.555       288.569       288.566        288.57
         24.7       288.516        288.54        288.56       288.557       288.568
         24.8       288.509       288.524        288.55        288.55       288.534
         24.9       288.501        288.51       288.537       288.543       288.552
           25       288.493       288.498       288.522       288.531       288.526
         25.1       288.485       288.486       288.506       288.518       288.512
         25.2       288.477       288.476       288.489       288.502        288.51
         25.3       288.468       288.467       288.473       288.482        288.47
         25.4       288.459       288.458       288.457       288.461       288.469
         25.5        288.45       288.448       288.443       288.434       288.421
         25.6       288.442       288.439       288.427       288.411        288.42
         25.7       288.433       288.429       288.412       288.388       288.373
         25.8       288.425       288.419       288.396       288.372       288.382
         25.9       288.417       288.409        288.38       288.355       288.343
           26       288.409       288.397       288.364       288.346       288.341
         26.1       288.401       288.384        288.35       288.334       288.343
         26.2       288.394        288.37       288.338       288.324        288.31
         26.3       288.387       288.356       288.328       288.318       288.328
         26.4        288.38       288.342       288.318       288.308       288.309
         26.5       288.373       288.329        288.31       288.302       288.288
         26.6       288.365       288.317       288.302       288.294       288.303
         26.7       288.356       288.307       288.294       288.288       288.298
         26.8       288.346       288.298       288.287       288.277        288.27
         26.9       288.334       288.289       288.279       288.274       288.257
           27        288.32       288.282       288.272       288.265       288.273
         27.1       288.303       288.274       288.264       288.256       288.259
         27.2       288.284       288.267       288.257        288.25       288.234
         27.3       288.264       288.259        288.25       288.243       288.248
         27.4       288.244       288.252       288.242       288.234        288.24
         27.5       288.227       288.244       288.235       288.227       288.211
         27.6       288.213       288.236       288.228       288.221       288.229
         27.7         288.2       288.228       288.221       288.212       288.209
         27.8        288.19       288.219       288.214       288.206       288.205
         27.9       288.181       288.208       288.206       288.199       288.204
           28       288.172       288.197       288.198       288.191       288.176
         28.1       288.164       288.185        288.19       288.185       288.189
         28.2       288.156       288.172       288.181       288.176       288.174
         28.3       288.147       288.158       288.171       288.169       288.159
         28.4       288.139       288.145        288.16        288.16       288.171
         28.5       288.131       288.133       288.147        288.15       288.137
         28.6       288.122       288.122       288.133       288.137       288.136
         28.7       288.113       288.112       288.119       288.124       288.116
         28.8       288.104       288.102       288.105       288.109        288.12
         28.9       288.095       288.092       288.092        288.09       288.075
           29       288.086       288.082       288.078       288.072       288.082
         29.1       288.077       288.073       288.064       288.052       288.039
         29.2       288.068       288.063        288.05       288.036       288.046
         29.3       288.059       288.054       288.036       288.018       288.009
         29.4        288.05       288.043       288.022       288.005       288.006
         29.5       288.041       288.032       288.009       287.994       288.004
         29.6       288.033        288.02       287.996       287.981       287.968
         29.7       288.025       288.008       287.984       287.973       287.981
         29.8       288.017       287.995       287.974       287.962       287.961
         29.9       288.009       287.983       287.964       287.956        287.95
           30       288.001       287.971       287.954       287.945       287.952
         30.1       287.993       287.959       287.946       287.937       287.922
         30.2       287.984       287.949       287.937       287.929       287.939
         30.3       287.974       287.939       287.928       287.921       287.932
         30.4       287.962        287.93        287.92       287.912       287.897
         30.5       287.949       287.921       287.912       287.905       287.912
         30.6       287.935       287.913       287.904       287.895       287.897
         30.7       287.919       287.905       287.896       287.888       287.888
         30.8       287.903       287.897       287.888       287.879       287.889
         30.9       287.888       287.888       287.879       287.871       287.855
           31       287.873        287.88       287.871       287.863       287.872
         31.1        287.86       287.872       287.863       287.855       287.861
         31.2       287.848       287.863       287.855       287.848       287.831
         31.3       287.837       287.853       287.847        287.84       287.823
         31.4       287.827       287.843       287.839       287.832       287.842
         31.5       287.818       287.832       287.831       287.823       287.829
         31.6       287.809       287.821       287.822       287.816       287.799
         31.7         287.8       287.809       287.812       287.815         287.8
         31.8       287.791       287.797       287.802         287.8       287.794
         31.9       287.783       287.786       287.792       287.789       287.798
           32       287.774       287.775       287.781       287.779       287.764
         32.1       287.765       287.764       287.768       287.769       287.779
         32.2       287.755       287.753       287.756       287.755       287.749
         32.3       287.746       287.743       287.743       287.744       287.741
         32.4       287.737       287.734       287.731       287.727       287.734
         32.5       287.727       287.724       287.718       287.713       287.699
         32.6       287.718       287.714       287.706       287.696       287.704
         32.7       287.709       287.704       287.693       287.682       287.669
         32.8         287.7       287.694        287.68       287.668       287.667
         32.9       287.691       287.684       287.668       287.655       287.655
           33       287.682       287.673       287.656       287.643       287.631
         33.1       287.673       287.662       287.644       287.632       287.642
         33.2       287.665        287.65       287.633       287.621        287.61
         33.3       287.656       287.639       287.622       287.613       287.621
         33.4       287.648       287.627       287.612       287.602       287.601
         33.5       287.639       287.616       287.603       287.593        287.59
         33.6        287.63       287.606       287.593       287.586       287.577
         33.7        287.62       287.595       287.584       287.577       287.587
         33.8        287.61       287.586       287.576       287.568       287.552
         33.9       287.599       287.576       287.567        287.56       287.567
           34       287.587       287.567       287.558       287.549       287.559
         34.1       287.575       287.559       287.549       287.542       287.527
         34.2       287.561        287.55       287.541       287.533       287.543
         34.3       287.548       287.541       287.532       287.523       287.512
         34.4       287.534       287.532       287.524       287.516       287.513
         34.5       287.522       287.523       287.515       287.507       287.513
         34.6       287.509       287.514       287.506       287.498       287.488
         34.7       287.498       287.505       287.498       287.491       287.487
         34.8       287.487       287.496       287.489       287.481       287.492
         34.9       287.477       287.485        287.48       287.473       287.457
           35       287.468       287.475       287.472       287.465       287.476
         35.1       287.459       287.464       287.463       287.455       287.443
         35.2        287.45       287.453       287.453       287.448       287.453
         35.3        287.44       287.442       287.443       287.437       287.431