# Probe 0 (1 0 0)
# Probe 1 (140 0 0)
# Probe 2 (200 0 0)
# Probe 3 (249.6 0 0)
# Probe 4 (255 0 0)
#       Probe             0             1             2             3             4
#        Time
            0        290.84        290.84        290.84        290.84        290.84
          0.1        290.84        290.84        290.84        290.33       290.323
          0.2        290.84        290.84        290.84       290.326       290.315
          0.3        290.84        290.84        290.84       290.323       290.313
          0.4        290.84        290.84       290.768        290.32       290.314
          0.5        290.84        290.84       290.343       290.321       290.311
          0.6        290.84        290.84       290.342       290.323       290.314
          0.7        290.84        290.84       290.344       290.325       290.319
          0.8        290.84       290.819       290.345       290.326       290.318
          0.9        290.84       290.384       290.346       290.327       290.323
            1        290.84       290.366       290.347       290.327       290.319
          1.1        290.84       290.367       290.348       290.328       290.323
          1.2        290.84       290.368       290.348       290.328       290.325
          1.3        290.84       290.369       290.349       290.328       290.325
          1.4        290.84        290.37       290.349       290.329       290.325
          1.5        290.84        290.37       290.349       290.329       290.324
          1.6        290.84       290.371        290.35        290.33       290.323
          1.7       290.836       290.371        290.35        290.33       290.323
          1.8       290.763       290.371        290.35       290.331       290.323
          1.9       290.326       290.371        290.35       290.331       290.324
            2       289.991       290.372       290.351       290.331       290.325
          2.1       289.996       290.372       290.351       290.331       290.325
          2.2       289.997       290.372       290.351       290.332       290.325
          2.3       289.998       290.372       290.351       290.332       290.326
          2.4       289.997       290.372       290.351       290.332       290.326
          2.5       289.997       290.371       290.351       290.332       290.327
          2.6       289.997       290.368       290.351       290.332       290.327
          2.7       289.997       290.366       290.351       290.332       290.327
          2.8       289.997       290.343       290.351       290.332       290.328
          2.9       289.997       290.187       290.349       290.332       290.328
            3       289.997       290.028       290.346       290.332       290.328
          3.1       289.996       290.021       290.345       290.331       290.329
          3.2       289.996        290.02       290.338       290.326       290.326
          3.3       289.995       290.018       290.235       290.322        290.32
          3.4       289.993       290.012       290.055       290.313       290.306
          3.5       289.992       290.006       290.009       290.302       290.297
          3.6       289.991       289.999       289.998       290.262       290.277
          3.7       289.989       289.993       289.989        290.08       290.106
          3.8       289.983       289.987       289.978        289.82        289.78
          3.9       289.977       289.979       289.969        289.68       289.662
            4       289.972        289.97       289.955       289.658       289.651
          4.1       289.967       289.961       289.882       289.648       289.642
          4.2       289.963       289.953        289.73       289.643       289.637
          4.3       289.962       289.948       289.661        289.64       289.634
          4.4       289.962       289.942       289.654       289.639       289.634
          4.5       289.961       289.905       289.652       289.638       289.633
          4.6       289.961       289.785        289.65       289.637       289.631
          4.7       289.961       289.684       289.648       289.635        289.63
          4.8       289.959       289.666       289.647       289.633       289.627
          4.9       289.955       289.663       289.646       289.631       289.625
            5       289.949       289.661       289.646       289.628       289.623
          5.1       289.942        289.66       289.644       289.626        289.62
          5.2       289.935       289.658       289.642       289.623       289.617
          5.3       289.928       289.657        289.64       289.622       289.616
          5.4       289.912       289.655       289.638       289.622       289.617
          5.5       289.845       289.653       289.636       289.621       289.616
          5.6       289.664       289.651       289.633        289.62       289.614
          5.7       289.474       289.649       289.632       289.618       289.612
          5.8       289.419       289.646       289.631       289.616        289.61
          5.9        289.41       289.642       289.629       289.614       289.609
            6       289.407       289.638       289.627       289.612       289.607
          6.1       289.404       289.633       289.625        289.61       289.605
          6.2       289.401       289.629       289.623       289.608       289.602
          6.3       289.397       289.623        289.62       289.606         289.6
          6.4       289.394       289.612       289.616       289.604       289.598
          6.5        289.39       289.577       289.611       289.602       289.596
          6.6       289.386       289.501       289.606       289.599       289.593
          6.7       289.382       289.419         289.6       289.594       289.589
          6.8       289.377       289.387        289.59       289.589       289.583
          6.9       289.371       289.378       289.564       289.581       289.575
            7       289.365       289.372       289.501       289.572       289.564
          7.1       289.358       289.365       289.416       289.561       289.552
          7.2        289.35       289.357       289.367       289.537       289.535
          7.3       289.343       289.348       289.348       289.483       289.486
          7.4       289.335        289.34       289.336       289.372       289.374
          7.5       289.327       289.331       289.325       289.236       289.222
          7.6       289.318       289.321        289.31       289.144       289.133
          7.7        289.31       289.311       289.283       289.108       289.096
          7.8       289.303       289.301       289.229       289.093       289.085
          7.9       289.297       289.292       289.155       289.084       289.078
            8       289.292       289.282       289.107       289.078       289.071
          8.1       289.288       289.265       289.089       289.072       289.064
          8.2       289.285       289.226        289.08       289.067       289.059
          8.3       289.281       289.163       289.074       289.062       289.053
          8.4       289.277       289.108       289.069       289.056       289.046
          8.5       289.272       289.084       289.064       289.051       289.042
          8.6       289.266       289.074       289.058       289.045       289.037
          8.7       289.259       289.068       289.053       289.038       289.031
          8.8       289.251       289.062       289.048       289.032       289.026
          8.9       289.242       289.057       289.042       289.026       289.019
            9       289.228       289.052       289.037       289.021       289.013
          9.1       289.197       289.046       289.031       289.016       289.007
          9.2       289.131       289.041       289.025       289.012       289.002
          9.3       289.026       289.035       289.019       289.006       288.997
          9.4       288.933       289.029       289.014       289.001       288.993
          9.5       288.887       289.023       289.009       288.995       288.988
          9.6        288.87       289.016       289.004        288.99       288.982
          9.7       288.861       289.009       288.998       288.984       288.978
          9.8       288.853       289.002       288.993       288.978       288.972
          9.9       288.847       288.994       288.987       288.973       288.966
           10        288.84       288.983        288.98       288.967       288.959
         10.1       288.833       288.963       288.974       288.962       288.952
         10.2       288.825       288.929       288.967       288.956       288.947
         10.3       288.818        288.88       288.958        288.95       288.943
         10.4        288.81       288.837       288.948       288.943       288.937
         10.5       288.802       288.812       288.931       288.935       288.929
         10.6       288.793       288.798       288.901       288.925       288.919
         10.7       288.784       288.788       288.855       288.913       288.904
         10.8       288.774       288.778       288.809       288.895       288.889
         10.9       288.764       288.768       288.777       288.864       288.862
           11       288.754       288.757       288.758        288.81       288.811
         11.1       288.743       288.747       288.743       288.735       288.734
         11.2       288.733       288.736       288.728       288.659       288.654
         11.3       288.723       288.725       288.708       288.607       288.599
         11.4       288.713       288.713       288.677       288.578       288.568
         11.5       288.704       288.702       288.636       288.562       288.555
         11.6       288.695        288.69       288.594       288.549       288.543
         11.7       288.688       288.674       288.565        288.54       288.531
         11.8        288.68        288.65       288.547       288.532       288.521
         11.9       288.673       288.616       288.536       288.523       288.515
           12       288.666       288.577       288.526       288.514       288.507
         12.1       288.659       288.546       288.517       288.504       288.498
         12.2        288.65       288.526       288.508       288.495       288.486
         12.3       288.642       288.514         288.5       288.486       288.477
         12.4       288.632       288.504       288.491       288.477       288.471
         12.5       288.621       288.496       288.482       288.468       288.461
         12.6       288.607       288.487       288.474       288.459       288.451
         12.7       288.584       288.478       288.465       288.451       288.441
         12.8       288.546        288.47       288.456       288.443       288.435
         12.9        288.49       288.461       288.447       288.434       288.428
           13       288.428       288.452       288.439       288.425       288.419
         13.1       288.379       288.443        288.43       288.417       288.409
         13.2       288.349       288.434       288.422       288.408       288.399
         13.3       288.332       288.425       288.413         288.4       288.392
         13.4        288.32       288.415       288.405       288.392       288.386
         13.5        288.31       288.405       288.396       288.383       288.377
         13.6         288.3       288.392       288.387       288.374       288.366
         13.7        288.29       288.375       288.378       288.366       288.356
         13.8        288.28       288.352       288.369       288.358        288.35
         13.9        288.27       288.321       288.358       288.349       288.342
           14       288.259       288.289       288.346       288.339       288.332
         14.1       288.249       288.263       288.331       288.329        288.32
         14.2       288.238       288.244       288.309       288.319        288.31
         14.3       288.227        288.23       288.279       288.306         288.3
         14.4       288.215       288.218       288.247       288.289       288.282
         14.5       288.203       288.206       288.218       288.264       288.258
         14.6       288.191       288.193       288.196       288.229       288.226
         14.7       288.179       288.181       288.179       288.182        288.18
         14.8       288.168       288.169       288.162       288.133       288.126
         14.9       288.156       288.157       288.143       288.089       288.079
           15       288.144       288.144        288.12       288.058       288.051
         15.1       288.133       288.131       288.092       288.036       288.026
         15.2       288.122       288.117       288.061       288.021       288.013
         15.3       288.111       288.101       288.035       288.008           288
         15.4       288.101       288.081       288.015       287.996       287.986
         15.5       288.092       288.057       287.999       287.985       287.977
         15.6       288.082       288.029       287.986       287.973       287.967
         15.7       288.072       288.003       287.974       287.961       287.954
         15.8       288.062       287.983       287.963        287.95       287.942
         15.9       288.051       287.967       287.952       287.939       287.933
           16        288.04       287.954       287.941       287.927       287.921
         16.1       288.027       287.942        287.93       287.916       287.908
         16.2       288.011       287.931       287.919       287.905       287.896
         16.3        287.99        287.92       287.908       287.894       287.887
         16.4       287.962       287.909       287.897       287.883       287.877
         16.5       287.925       287.898       287.886       287.872       287.863
         16.6       287.884       287.887       287.875       287.862       287.854
         16.7       287.847       287.876       287.864       287.851       287.845
         16.8       287.818       287.865       287.853        287.84       287.834
         16.9       287.798       287.853       287.842       287.829        287.82
           17       287.782       287.842       287.832       287.819        287.81
         17.1       287.769       287.829       287.821       287.808       287.801
         17.2       287.757       287.815        287.81       287.797        287.79
         17.3       287.745       287.798       287.799       287.786       287.778
         17.4       287.733       287.778       287.787       287.776       287.766
         17.5        287.72       287.755       287.775       287.765       287.758
         17.6       287.708        287.73       287.761       287.754       287.747
         17.7       287.696       287.708       287.745       287.742       287.734
         17.8       287.683       287.689       287.726       287.729        287.72
         17.9       287.671       287.673       287.703       287.715       287.709
           18       287.658       287.659       287.678       287.697       287.691
         18.1       287.645       287.645       287.655       287.676       287.671
         18.2       287.631       287.632       287.634       287.648       287.641
         18.3       287.618       287.619       287.616       287.614        287.61
         18.4       287.605       287.605       287.598       287.579        287.57
         18.5       287.592       287.592       287.579       287.546        287.54
         18.6       287.579       287.578       287.559       287.519       287.513
         18.7       287.566       287.564       287.536       287.498       287.492
         18.8       287.554       287.549       287.512       287.481       287.471
         18.9       287.542       287.532        287.49       287.467        287.46
           19        287.53       287.514        287.47       287.452       287.445
         19.1       287.518       287.493       287.454       287.439        287.43
         19.2       287.506       287.471       287.439       287.426       287.419
         19.3       287.494       287.449       287.426       287.413       287.407
         19.4       287.482        287.43       287.413         287.4       287.391
         19.5        287.47       287.414         287.4       287.387       287.378
         19.6       287.457       287.399       287.387       287.375       287.368
         19.7       287.443       287.386       287.374       287.362       287.356
         19.8       287.426       287.373       287.361       287.348       287.342
         19.9       287.406        287.36       287.349       287.336       287.328
           20       287.381       287.347       287.336       287.324       287.315
         20.1       287.353       287.335       287.324       287.312       287.304
         20.2       287.323       287.322       287.311       287.298       287.291
         20.3       287.295        287.31       287.299       287.286       287.276
         20.4       287.271       287.297       287.286       287.274       287.265
         20.5       287.251       287.284       287.274       287.261       287.254
         20.6       287.235       287.271       287.261       287.249       287.242
         20.7        287.22       287.256       287.249       287.236        287.23
         20.8       287.206       287.241       287.236       287.224       287.215
         20.9       287.192       287.224       287.224       287.212       287.204
           21       287.179       287.206        287.21         287.2       287.193
         21.1       287.165       287.186       287.197       287.186       287.178
         21.2       287.152       287.165       287.182       287.175       287.166
         21.3       287.138       287.146       287.165       287.161       287.155
         21.4       287.124       287.128       287.147       287.146       287.138
         21.5       287.111       287.112       287.127       287.131       287.125
         21.6       287.097       287.097       287.106       287.113       287.107
         21.7       287.083       287.082       287.086       287.092       287.084
         21.8       287.068       287.068       287.067       287.068       287.063
         21.9       287.054       287.053       287.049       287.041       287.033
           22        287.04       287.039       287.031       287.015       287.009
         22.1       287.026       287.025       287.013       286.989       286.979
         22.2       287.013        287.01       286.993       286.967        286.96
         22.3       286.999       286.995       286.973       286.946       286.937
         22.4       286.985       286.979       286.952        286.93       286.923
         22.5       286.972       286.963       286.933       286.913       286.906
         22.6       286.959       286.944       286.915       286.899       286.891
         22.7       286.945       286.925       286.899       286.884       286.879
         22.8       286.932       286.906       286.883        286.87       286.861
         22.9       286.919       286.887       286.869       286.857        286.85
           23       286.906       286.869       286.855       286.842       286.835
         23.1       286.892       286.853       286.841       286.828       286.819
         23.2       286.877       286.838       286.827       286.815       286.808
         23.3       286.862       286.824       286.813         286.8       286.794
         23.4       286.844       286.809       286.799       286.786       286.777
         23.5       286.824       286.796       286.785       286.773       286.765
         23.6       286.802       286.782       286.771       286.759       286.752
         23.7       286.778       286.768       286.758       286.746       286.736
         23.8       286.754       286.754       286.744       286.732       286.725
         23.9       286.732       286.741        286.73       286.718       286.711
           24       286.711       286.727       286.717       286.705       286.695
         24.1       286.693       286.712       286.703       286.691       286.685
         24.2       286.676       286.698        286.69       286.677        286.67
         24.3       286.661       286.683       286.676       286.664       286.656
         24.4       286.646       286.667       286.662        286.65       286.644
         24.5       286.631        286.65       286.648       286.637       286.628
         24.6       286.617       286.632       286.634       286.624       286.616
         24.7       286.603       286.613       286.619       286.609       286.604
         24.8       286.588       286.595       286.603       286.595       286.586
         24.9       286.574       286.577       286.586       286.581       286.574
           25       286.559        286.56       286.568       286.565       286.558
         25.1       286.545       286.544        286.55       286.549        286.54
         25.2        286.53       286.529       286.531        286.53       286.525
         25.3       286.515       286.513       286.513        286.51       286.502
         25.4         286.5       286.498       286.495       286.489       286.483
         25.5       286.486       286.483       286.477       286.465       286.456
         25.6       286.471       286.469       286.459       286.443       286.437
         25.7       286.456       286.453       286.441       286.421       286.412
         25.8       286.442       286.438       286.423       286.403       286.397
         25.9       286.427       286.422       286.404       286.384       286.377
           26       286.413       286.406       286.385       286.368        286.36
         26.1       286.399       286.389       286.368       286.352       286.345
         26.2       286.385       286.371       286.351       286.336       286.326
         26.3        286.37       286.353       286.335       286.322       286.315
         26.4       286.356       286.335       286.319       286.306         286.3
         26.5       286.342       286.318       286.304       286.292       286.282
         26.6       286.327       286.301       286.289       286.277       286.271
         26.7       286.312       286.285       286.274       286.263       286.256
         26.8       286.297        286.27        286.26       286.247        286.24
         26.9        286.28       286.255       286.245       286.233       286.224
           27       286.262        286.24        286.23       286.219       286.212
         27.1       286.243       286.225       286.216       286.204       286.198
         27.2       286.222       286.211       286.201       286.189        286.18
         27.3       286.201       286.196       286.187       286.175       286.168
         27.4       286.181       286.182       286.172        286.16       286.154
         27.5       286.161       286.167       286.158       286.146       286.136
         27.6       286.143       286.152       286.143       286.132       286.125
         27.7       286.126       286.137       286.129       286.116       286.109
         27.8        286.11       286.122       286.114       286.102       286.095
         27.9       286.094       286.106         286.1       286.088       286.081
           28       286.078       286.089       286.085       286.073       286.064
         28.1       286.063       286.072        286.07        286.06       286.052
         28.2       286.048       286.055       286.055       286.044       286.037
         28.3       286.033       286.037       286.039        286.03       286.022
         28.4       286.018        286.02       286.023       286.015       286.009
         28.5       286.003       286.003       286.005       285.999        285.99
         28.6       285.988       285.987       285.988       285.982       285.976
         28.7       285.973       285.971        285.97       285.965       285.957
         28.8       285.957       285.955       285.952       285.947       285.941
         28.9       285.942       285.939       285.935       285.927       285.917
           29       285.927       285.924       285.918       285.907       285.901
         29.1       285.912       285.909         285.9       285.887       285.878
         29.2       285.896       285.893       285.883       285.868       285.862
         29.3       285.881       285.878       285.865       285.848       285.841
         29.4       285.866       285.862       285.847       285.831       285.823
         29.5       285.851       285.845        285.83       285.814       285.808
         29.6       285.836       285.828       285.812       285.797       285.789
         29.7       285.821       285.811       285.795       285.782       285.774
         29.8       285.806       285.794       285.779       285.766       285.759
         29.9       285.792       285.777       285.763       285.751       285.741
           30       285.777        285.76       285.747       285.735       285.728
         30.1       285.762       285.743       285.732        285.72        285.71
         30.2       285.746       285.727       285.716       285.705       285.699
         30.3        285.73       285.711       285.701        285.69       285.683
         30.4       285.714       285.695       285.686       285.674       285.665
         30.5       285.696        285.68       285.671       285.659       285.652
         30.6       285.678       285.665       285.656       285.643       285.637
         30.7       285.659       285.649        285.64       285.629        285.62
         30.8        285.64       285.634       285.625       285.613       285.607
         30.9       285.621       285.619        285.61       285.598       285.589
           31       285.603       285.604       285.595       285.583       285.576
         31.1       285.585       285.589        285.58       285.568       285.561
         31.2       285.568       285.573       285.565       285.553       285.543
         31.3       285.551       285.557        285.55       285.538       285.529
         31.4       285.535       285.541       285.534       285.523       285.517
         31.5       285.519       285.525       285.519       285.508       285.501
         31.6       285.503       285.508       285.504       285.493       285.484
         31.7       285.488       285.491       285.488       285.479        285.47
         31.8       285.472       285.474       285.472       285.463       285.454
         31.9       285.457       285.457       285.456       285.447       285.441
           32       285.441        285.44       285.439       285.431       285.422
         32.1       285.426       285.424       285.422       285.414       285.409
         32.2        285.41       285.408       285.405       285.397        285.39
         32.3       285.394       285.392       285.388        285.38       285.371
         32.4       285.379       285.376        285.37       285.361       285.355
         32.5       285.363        285.36       285.353       285.343       285.333
         32.6       285.347       285.344       285.336       285.323       285.318
         32.7       285.332       285.328       285.319       285.306       285.296
         32.8       285.316       285.312       285.301       285.288        285.28
         32.9       285.301       285.296       285.284        285.27       285.263
           33       285.286        285.28       285.267       285.253       285.244
         33.1        285.27       285.263        285.25       285.236       285.229
         33.2       285.255       285.246       285.233       285.219        285.21
         33.3       285.239       285.229       285.217       285.204       285.197
         33.4       285.224       285.212         285.2       285.188       285.181
         33.5       285.208       285.196       285.184       285.172       285.165
         33.6       285.193       285.179       285.168       285.157       285.148
         33.7       285.177       285.163       285.153       285.141       285.135
         33.8       285.161       285.147       285.137       285.125       285.117
         33.9       285.144       285.131       285.121        285.11       285.102
           34       285.127       285.115       285.106       285.093       285.087
         34.1       285.109       285.099        285.09       285.078       285.069
         34.2       285.091       285.084       285.074       285.063       285.057
         34.3       285.073       285.068       285.059       285.047       285.039
         34.4       285.055       285.052       285.043       285.032       285.024
         34.5       285.038       285.036       285.028       285.016        285.01
         34.6        285.02       285.021       285.012           285       284.993
         34.7       285.003       285.005       284.997       284.985       284.978
         34.8       284.986       284.989       284.981        284.97       284.963
         34.9        284.97       284.972       284.965       284.954       284.945
           35       284.954       284.956        284.95       284.939       284.933
         35.1       284.938       284.939       284.934       284.923       284.915
         35.2       284.922       284.922       284.918       284.908       284.901
         35.3       284.906       284.906       284.902       284.891       284.884