# Probe 0 (1 0 0)
# Probe 1 (140 0 0)
# Probe 2 (200 0 0)
# Probe 3 (249.6 0 0)
# Probe 4 (255 0 0)
#       Probe             0             1             2             3             4
#        Time
            0             (0 0 0)             (0 0 0)             (0 0 0)             (0 0 0)             (0 0 0)
          0.1             (1.7779e-11 0 0)             (-9.28786e-12 0 0)             (9.27384e-13 0 0)             (1.69553 0 0)             (1.68911 0 0)
          0.2             (2.55373e-12 0 0)             (-1.27994e-11 0 0)             (1.05844e-11 0 0)             (1.69708 0 0)             (1.72845 0 0)
          0.3             (1.41021e-11 0 0)             (-1.42136e-11 0 0)             (8.75757e-05 0 0)             (1.69836 0 0)             (1.71912 0 0)
          0.4             (6.88953e-12 0 0)             (-2.05865e-11 0 0)             (0.253801 0 0)             (1.70525 0 0)             (1.68143 0 0)
          0.5             (2.12689e-12 0 0)             (5.2677e-09 0 0)             (1.65967 0 0)             (1.70684 0 0)             (1.73293 0 0)
          0.6             (-1.84203e-12 0 0)             (4.2293e-05 0 0)             (1.66501 0 0)             (1.71218 0 0)             (1.73543 0 0)
          0.7             (1.01214e-11 0 0)             (0.000138884 0 0)             (1.65712 0 0)             (1.71072 0 0)             (1.71097 0 0)
          0.8             (9.09727e-12 0 0)             (0.0751765 0 0)             (1.64987 0 0)             (1.70974 0 0)             (1.74629 0 0)
          0.9             (1.70773e-11 0 0)             (1.5353 0 0)             (1.64491 0 0)             (1.71041 0 0)             (1.69278 0 0)
            1             (1.15681e-11 0 0)             (1.57373 0 0)             (1.64129 0 0)             (1.70911 0 0)             (1.7493 0 0)
          1.1             (1.066e-10 0 0)             (1.56912 0 0)             (1.63854 0 0)             (1.70566 0 0)             (1.7086 0 0)
          1.2             (8.91557e-08 0 0)             (1.56524 0 0)             (1.63979 0 0)             (1.71257 0 0)             (1.69109 0 0)
          1.3             (3.55984e-06 0 0)             (1.56264 0 0)             (1.64149 0 0)             (1.71676 0 0)             (1.69672 0 0)
          1.4             (7.19183e-06 0 0)             (1.56065 0 0)             (1.64302 0 0)             (1.71673 0 0)             (1.70882 0 0)
          1.5             (3.49546e-06 0 0)             (1.56151 0 0)             (1.64445 0 0)             (1.71499 0 0)             (1.72556 0 0)
          1.6             (6.66089e-05 0 0)             (1.56421 0 0)             (1.64546 0 0)             (1.71207 0 0)             (1.74163 0 0)
          1.7             (0.003501 0 0)             (1.56665 0 0)             (1.64651 0 0)             (1.70908 0 0)             (1.75034 0 0)
          1.8             (0.0517841 0 0)             (1.56913 0 0)             (1.64752 0 0)             (1.70697 0 0)             (1.74774 0 0)
          1.9             (0.174203 0 0)             (1.57126 0 0)             (1.64863 0 0)             (1.70615 0 0)             (1.74373 0 0)
            2             (-0.0127212 0 0)             (1.57323 0 0)             (1.64971 0 0)             (1.70635 0 0)             (1.74262 0 0)
          2.1             (0.000440579 0 0)             (1.57527 0 0)             (1.6508 0 0)             (1.70661 0 0)             (1.74144 0 0)
          2.2             (0.0024331 0 0)             (1.57727 0 0)             (1.6517 0 0)             (1.70688 0 0)             (1.74018 0 0)
          2.3             (0.00360794 0 0)             (1.57928 0 0)             (1.65273 0 0)             (1.70713 0 0)             (1.73884 0 0)
          2.4             (0.00311612 0 0)             (1.58068 0 0)             (1.65378 0 0)             (1.70745 0 0)             (1.73746 0 0)
          2.5             (0.003184 0 0)             (1.5703 0 0)             (1.65479 0 0)             (1.70774 0 0)             (1.73601 0 0)
          2.6             (0.00311359 0 0)             (1.54425 0 0)             (1.65577 0 0)             (1.70805 0 0)             (1.73451 0 0)
          2.7             (0.00302527 0 0)             (1.52411 0 0)             (1.65641 0 0)             (1.70841 0 0)             (1.73298 0 0)
          2.8             (0.00300302 0 0)             (1.43682 0 0)             (1.64966 0 0)             (1.70875 0 0)             (1.73141 0 0)
          2.9             (0.00297285 0 0)             (0.916744 0 0)             (1.62721 0 0)             (1.7091 0 0)             (1.72981 0 0)
            3             (0.00293992 0 0)             (0.390139 0 0)             (1.6063 0 0)             (1.70815 0 0)             (1.72618 0 0)
          3.1             (0.00291505 0 0)             (0.370123 0 0)             (1.58973 0 0)             (1.70117 0 0)             (1.70272 0 0)
          3.2             (0.0028735 0 0)             (0.365659 0 0)             (1.55797 0 0)             (1.70003 0 0)             (1.68949 0 0)
          3.3             (0.00280818 0 0)             (0.361249 0 0)             (1.2103 0 0)             (1.70061 0 0)             (1.69172 0 0)
          3.4             (0.00182993 0 0)             (0.356855 0 0)             (0.632698 0 0)             (1.70153 0 0)             (1.69364 0 0)
          3.5             (0.00124648 0 0)             (0.352484 0 0)             (0.518818 0 0)             (1.7032 0 0)             (1.69714 0 0)
          3.6             (0.00135703 0 0)             (0.348024 0 0)             (0.523557 0 0)             (1.58803 0 0)             (1.70458 0 0)
          3.7             (0.00282933 0 0)             (0.34346 0 0)             (0.528946 0 0)             (1.20624 0 0)             (1.59315 0 0)
          3.8             (0.00275466 0 0)             (0.340452 0 0)             (0.536576 0 0)             (1.28608 0 0)             (1.61172 0 0)
          3.9             (0.00267927 0 0)             (0.342779 0 0)             (0.541681 0 0)             (1.65098 0 0)             (1.73025 0 0)
            4             (0.00261395 0 0)             (0.349254 0 0)             (0.564379 0 0)             (1.68972 0 0)             (1.69829 0 0)
          4.1             (0.00257128 0 0)             (0.355627 0 0)             (0.789749 0 0)             (1.69653 0 0)             (1.69208 0 0)
          4.2             (0.00256168 0 0)             (0.362758 0 0)             (1.28224 0 0)             (1.69762 0 0)             (1.69026 0 0)
          4.3             (0.00255215 0 0)             (0.368826 0 0)             (1.49821 0 0)             (1.70073 0 0)             (1.69019 0 0)
          4.4             (0.00252692 0 0)             (0.384547 0 0)             (1.51801 0 0)             (1.70193 0 0)             (1.69157 0 0)
          4.5             (0.00248022 0 0)             (0.517256 0 0)             (1.51874 0 0)             (1.70222 0 0)             (1.69042 0 0)
          4.6             (0.00242491 0 0)             (0.924615 0 0)             (1.51803 0 0)             (1.70074 0 0)             (1.69223 0 0)
          4.7             (0.00247236 0 0)             (1.25566 0 0)             (1.51743 0 0)             (1.70055 0 0)             (1.69107 0 0)
          4.8             (0.00290603 0 0)             (1.31498 0 0)             (1.51806 0 0)             (1.69854 0 0)             (1.69331 0 0)
          4.9             (0.00362212 0 0)             (1.32336 0 0)             (1.52227 0 0)             (1.69839 0 0)             (1.69141 0 0)
            5             (0.00403326 0 0)             (1.32684 0 0)             (1.52759 0 0)             (1.70046 0 0)             (1.69084 0 0)
          5.1             (0.00408974 0 0)             (1.33038 0 0)             (1.53121 0 0)             (1.70143 0 0)             (1.69286 0 0)
          5.2             (0.00415129 0 0)             (1.33382 0 0)             (1.53449 0 0)             (1.70538 0 0)             (1.69364 0 0)
          5.3             (0.00448826 0 0)             (1.33718 0 0)             (1.53795 0 0)             (1.70932 0 0)             (1.70129 0 0)
          5.4             (0.0101772 0 0)             (1.34073 0 0)             (1.54163 0 0)             (1.70916 0 0)             (1.69742 0 0)
          5.5             (0.0345886 0 0)             (1.34477 0 0)             (1.54543 0 0)             (1.70789 0 0)             (1.69995 0 0)
          5.6             (0.0630005 0 0)             (1.34942 0 0)             (1.5484 0 0)             (1.70716 0 0)             (1.69858 0 0)
          5.7             (0.0350165 0 0)             (1.35431 0 0)             (1.54882 0 0)             (1.70735 0 0)             (1.6988 0 0)
          5.8             (0.00814929 0 0)             (1.35809 0 0)             (1.54819 0 0)             (1.70783 0 0)             (1.70302 0 0)
          5.9             (0.00515465 0 0)             (1.35865 0 0)             (1.54867 0 0)             (1.70838 0 0)             (1.69603 0 0)
            6             (0.00472881 0 0)             (1.35569 0 0)             (1.55021 0 0)             (1.70845 0 0)             (1.69603 0 0)
          6.1             (0.00465739 0 0)             (1.34951 0 0)             (1.55194 0 0)             (1.70835 0 0)             (1.69509 0 0)
          6.2             (0.00464545 0 0)             (1.34118 0 0)             (1.55268 0 0)             (1.70781 0 0)             (1.69632 0 0)
          6.3             (0.00460701 0 0)             (1.33062 0 0)             (1.55082 0 0)             (1.70859 0 0)             (1.69513 0 0)
          6.4             (0.00462768 0 0)             (1.30054 0 0)             (1.5459 0 0)             (1.70859 0 0)             (1.69795 0 0)
          6.5             (0.00464115 0 0)             (1.19353 0 0)             (1.53911 0 0)             (1.70719 0 0)             (1.69946 0 0)
          6.6             (0.00469635 0 0)             (0.946915 0 0)             (1.53218 0 0)             (1.70541 0 0)             (1.70319 0 0)
          6.7             (0.00473162 0 0)             (0.683723 0 0)             (1.52256 0 0)             (1.70437 0 0)             (1.69714 0 0)
          6.8             (0.0047428 0 0)             (0.588939 0 0)             (1.49938 0 0)             (1.70194 0 0)             (1.69916 0 0)
          6.9             (0.00470198 0 0)             (0.57184 0 0)             (1.42077 0 0)             (1.70175 0 0)             (1.71175 0 0)
            7             (0.00450986 0 0)             (0.566262 0 0)             (1.22401 0 0)             (1.70046 0 0)             (1.73954 0 0)
          7.1             (0.00423558 0 0)             (0.56241 0 0)             (0.964783 0 0)             (1.69274 0 0)             (1.74719 0 0)
          7.2             (0.00409457 0 0)             (0.558601 0 0)             (0.833379 0 0)             (1.66664 0 0)             (1.71564 0 0)
          7.3             (0.00417281 0 0)             (0.554688 0 0)             (0.80909 0 0)             (1.57967 0 0)             (1.70394 0 0)
          7.4             (0.00424171 0 0)             (0.551181 0 0)             (0.806904 0 0)             (1.46028 0 0)             (1.67367 0 0)
          7.5             (0.00425466 0 0)             (0.548856 0 0)             (0.811231 0 0)             (1.48475 0 0)             (1.68082 0 0)
          7.6             (0.00423557 0 0)             (0.548372 0 0)             (0.828648 0 0)             (1.61671 0 0)             (1.68194 0 0)
          7.7             (0.00422266 0 0)             (0.549356 0 0)             (0.889184 0 0)             (1.67796 0 0)             (1.74129 0 0)
          7.8             (0.00419184 0 0)             (0.551125 0 0)             (1.04375 0 0)             (1.68776 0 0)             (1.70839 0 0)
          7.9             (0.00414838 0 0)             (0.554847 0 0)             (1.26535 0 0)             (1.69524 0 0)             (1.69605 0 0)
            8             (0.00413248 0 0)             (0.567562 0 0)             (1.40676 0 0)             (1.69721 0 0)             (1.70585 0 0)
          8.1             (0.00408852 0 0)             (0.611517 0 0)             (1.44749 0 0)             (1.69877 0 0)             (1.72291 0 0)
          8.2             (0.00403931 0 0)             (0.730047 0 0)             (1.45573 0 0)             (1.69686 0 0)             (1.7314 0 0)
          8.3             (0.00403914 0 0)             (0.930421 0 0)             (1.45691 0 0)             (1.69617 0 0)             (1.74533 0 0)
          8.4             (0.00415638 0 0)             (1.09946 0 0)             (1.45753 0 0)             (1.6936 0 0)             (1.75076 0 0)
          8.5             (0.00439781 0 0)             (1.16595 0 0)             (1.45903 0 0)             (1.69198 0 0)             (1.73166 0 0)
          8.6             (0.00465916 0 0)             (1.18412 0 0)             (1.46145 0 0)             (1.69176 0 0)             (1.71358 0 0)
          8.7             (0.00485784 0 0)             (1.19038 0 0)             (1.46471 0 0)             (1.69726 0 0)             (1.69792 0 0)
          8.8             (0.00503398 0 0)             (1.19408 0 0)             (1.46782 0 0)             (1.6998 0 0)             (1.69921 0 0)
          8.9             (0.00573669 0 0)             (1.19763 0 0)             (1.4709 0 0)             (1.70182 0 0)             (1.71734 0 0)
            9             (0.00828544 0 0)             (1.20108 0 0)             (1.47416 0 0)             (1.70224 0 0)             (1.7348 0 0)
          9.1             (0.0150344 0 0)             (1.20501 0 0)             (1.47716 0 0)             (1.69915 0 0)             (1.75171 0 0)
          9.2             (0.0267806 0 0)             (1.20934 0 0)             (1.48025 0 0)             (1.6948 0 0)             (1.7509 0 0)
          9.3             (0.0324531 0 0)             (1.21388 0 0)             (1.48267 0 0)             (1.6967 0 0)             (1.7407 0 0)
          9.4             (0.0221147 0 0)             (1.21817 0 0)             (1.48404 0 0)             (1.69601 0 0)             (1.72116 0 0)
          9.5             (0.0108025 0 0)             (1.22149 0 0)             (1.48537 0 0)             (1.70015 0 0)             (1.71534 0 0)
          9.6             (0.00694902 0 0)             (1.22297 0 0)             (1.48663 0 0)             (1.7018 0 0)             (1.71033 0 0)
          9.7             (0.00591808 0 0)             (1.22277 0 0)             (1.48855 0 0)             (1.70349 0 0)             (1.7017 0 0)
          9.8             (0.00569343 0 0)             (1.22008 0 0)             (1.48978 0 0)             (1.70531 0 0)             (1.70334 0 0)
          9.9             (0.00563942 0 0)             (1.21351 0 0)             (1.49072 0 0)             (1.70696 0 0)             (1.71822 0 0)
           10             (0.00562437 0 0)             (1.19587 0 0)             (1.48997 0 0)             (1.70554 0 0)             (1.74995 0 0)
         10.1             (0.00566257 0 0)             (1.15067 0 0)             (1.48773 0 0)             (1.70277 0 0)             (1.7554 0 0)
         10.2             (0.00568259 0 0)             (1.05472 0 0)             (1.48426 0 0)             (1.70085 0 0)             (1.75262 0 0)
         10.3             (0.00570883 0 0)             (0.913495 0 0)             (1.47785 0 0)             (1.7023 0 0)             (1.72322 0 0)
         10.4             (0.00572109 0 0)             (0.789338 0 0)             (1.4625 0 0)             (1.70232 0 0)             (1.70129 0 0)
         10.5             (0.00566321 0 0)             (0.728999 0 0)             (1.42517 0 0)             (1.70341 0 0)             (1.70655 0 0)
         10.6             (0.00563195 0 0)             (0.708662 0 0)             (1.34574 0 0)             (1.70149 0 0)             (1.73148 0 0)
         10.7             (0.00549979 0 0)             (0.700955 0 0)             (1.22012 0 0)             (1.69396 0 0)             (1.75316 0 0)
         10.8             (0.00537733 0 0)             (0.696525 0 0)             (1.09534 0 0)             (1.68113 0 0)             (1.72274 0 0)
         10.9             (0.00531725 0 0)             (0.692916 0 0)             (1.02532 0 0)             (1.64882 0 0)             (1.71271 0 0)
           11             (0.00531903 0 0)             (0.689668 0 0)             (1.00156 0 0)             (1.60232 0 0)             (1.68481 0 0)
         11.1             (0.00532333 0 0)             (0.686867 0 0)             (0.997785 0 0)             (1.57124 0 0)             (1.68606 0 0)
         11.2             (0.00531554 0 0)             (0.684657 0 0)             (1.00719 0 0)             (1.59996 0 0)             (1.69786 0 0)
         11.3             (0.00531607 0 0)             (0.683295 0 0)             (1.03634 0 0)             (1.65053 0 0)             (1.71078 0 0)
         11.4             (0.00527856 0 0)             (0.683024 0 0)             (1.10157 0 0)             (1.6828 0 0)             (1.73433 0 0)
         11.5             (0.00525981 0 0)             (0.685179 0 0)             (1.20538 0 0)             (1.68996 0 0)             (1.70057 0 0)
         11.6             (0.0052156 0 0)             (0.693594 0 0)             (1.3142 0 0)             (1.6975 0 0)             (1.71656 0 0)
         11.7             (0.0051802 0 0)             (0.716771 0 0)             (1.38194 0 0)             (1.69639 0 0)             (1.74714 0 0)
         11.8             (0.00514861 0 0)             (0.769939 0 0)             (1.40999 0 0)             (1.6926 0 0)             (1.75622 0 0)
         11.9             (0.00513123 0 0)             (0.860489 0 0)             (1.41879 0 0)             (1.69467 0 0)             (1.7217 0 0)
           12             (0.00518645 0 0)             (0.967383 0 0)             (1.42192 0 0)             (1.69735 0 0)             (1.70433 0 0)
         12.1             (0.00526849 0 0)             (1.04614 0 0)             (1.42327 0 0)             (1.70058 0 0)             (1.71826 0 0)
         12.2             (0.00538681 0 0)             (1.08461 0 0)             (1.425 0 0)             (1.69883 0 0)             (1.75571 0 0)
         12.3             (0.00554297 0 0)             (1.09996 0 0)             (1.42716 0 0)             (1.69695 0 0)             (1.74315 0 0)
         12.4             (0.00579559 0 0)             (1.10666 0 0)             (1.42951 0 0)             (1.69899 0 0)             (1.70767 0 0)
         12.5             (0.00640487 0 0)             (1.11047 0 0)             (1.43204 0 0)             (1.70129 0 0)             (1.7086 0 0)
         12.6             (0.00787716 0 0)             (1.11392 0 0)             (1.43451 0 0)             (1.70369 0 0)             (1.74007 0 0)
         12.7             (0.0109746 0 0)             (1.1174 0 0)             (1.43716 0 0)             (1.70068 0 0)             (1.7587 0 0)
         12.8             (0.0158073 0 0)             (1.12113 0 0)             (1.43955 0 0)             (1.69881 0 0)             (1.72822 0 0)
         12.9             (0.019915 0 0)             (1.12511 0 0)             (1.44169 0 0)             (1.70313 0 0)             (1.70649 0 0)
           13             (0.0190038 0 0)             (1.12872 0 0)             (1.44356 0 0)             (1.70495 0 0)             (1.71875 0 0)
         13.1             (0.0137851 0 0)             (1.13206 0 0)             (1.44537 0 0)             (1.70412 0 0)             (1.74569 0 0)
         13.2             (0.00943482 0 0)             (1.13454 0 0)             (1.44685 0 0)             (1.70252 0 0)             (1.75969 0 0)
         13.3             (0.00738942 0 0)             (1.13586 0 0)             (1.44852 0 0)             (1.70143 0 0)             (1.73356 0 0)
         13.4             (0.00665623 0 0)             (1.13537 0 0)             (1.44999 0 0)             (1.70429 0 0)             (1.7087 0 0)
         13.5             (0.00642324 0 0)             (1.13121 0 0)             (1.45103 0 0)             (1.70733 0 0)             (1.71193 0 0)
         13.6             (0.00635242 0 0)             (1.11958 0 0)             (1.45143 0 0)             (1.70611 0 0)             (1.74948 0 0)
         13.7             (0.00633771 0 0)             (1.09335 0 0)             (1.45123 0 0)             (1.70289 0 0)             (1.75945 0 0)
         13.8             (0.0063476 0 0)             (1.04404 0 0)             (1.44938 0 0)             (1.70264 0 0)             (1.7237 0 0)
         13.9             (0.00633064 0 0)             (0.971542 0 0)             (1.44463 0 0)             (1.70498 0 0)             (1.70966 0 0)
           14             (0.00634101 0 0)             (0.894494 0 0)             (1.43347 0 0)             (1.70774 0 0)             (1.73001 0 0)
         14.1             (0.0063473 0 0)             (0.838125 0 0)             (1.41039 0 0)             (1.70629 0 0)             (1.7605 0 0)
         14.2             (0.00627873 0 0)             (0.808308 0 0)             (1.36724 0 0)             (1.70177 0 0)             (1.74477 0 0)
         14.3             (0.00623685 0 0)             (0.794786 0 0)             (1.30211 0 0)             (1.69972 0 0)             (1.70911 0 0)
         14.4             (0.00617599 0 0)             (0.788304 0 0)             (1.22866 0 0)             (1.69065 0 0)             (1.72989 0 0)
         14.5             (0.00610786 0 0)             (0.784327 0 0)             (1.17079 0 0)             (1.67588 0 0)             (1.74073 0 0)
         14.6             (0.00608298 0 0)             (0.781257 0 0)             (1.13953 0 0)             (1.65217 0 0)             (1.71878 0 0)
         14.7             (0.0060607 0 0)             (0.778513 0 0)             (1.12865 0 0)             (1.63643 0 0)             (1.69678 0 0)
         14.8             (0.00603789 0 0)             (0.776218 0 0)             (1.13176 0 0)             (1.63628 0 0)             (1.71186 0 0)
         14.9             (0.00604385 0 0)             (0.774437 0 0)             (1.14897 0 0)             (1.65843 0 0)             (1.74341 0 0)
           15             (0.00601312 0 0)             (0.773784 0 0)             (1.18436 0 0)             (1.67854 0 0)             (1.70976 0 0)
         15.1             (0.00598337 0 0)             (0.775443 0 0)             (1.23875 0 0)             (1.69397 0 0)             (1.7583 0 0)
         15.2             (0.00595432 0 0)             (0.781734 0 0)             (1.30063 0 0)             (1.69584 0 0)             (1.72163 0 0)
         15.3             (0.00593492 0 0)             (0.797461 0 0)             (1.35074 0 0)             (1.70151 0 0)             (1.72784 0 0)
         15.4             (0.00589839 0 0)             (0.82804 0 0)             (1.38044 0 0)             (1.70122 0 0)             (1.76245 0 0)
         15.5             (0.00590178 0 0)             (0.876571 0 0)             (1.3947 0 0)             (1.70031 0 0)             (1.72709 0 0)
         15.6             (0.00589581 0 0)             (0.935801 0 0)             (1.4006 0 0)             (1.70382 0 0)             (1.7149 0 0)
         15.7             (0.00594124 0 0)             (0.988785 0 0)             (1.4033 0 0)             (1.70458 0 0)             (1.75181 0 0)
         15.8             (0.00601962 0 0)             (1.02366 0 0)             (1.40503 0 0)             (1.70453 0 0)             (1.74945 0 0)
         15.9             (0.00613965 0 0)             (1.04248 0 0)             (1.40664 0 0)             (1.70254 0 0)             (1.71259 0 0)
           16             (0.00639677 0 0)             (1.05172 0 0)             (1.40844 0 0)             (1.70587 0 0)             (1.72673 0 0)
         16.1             (0.00690581 0 0)             (1.05674 0 0)             (1.41048 0 0)             (1.70634 0 0)             (1.74674 0 0)
         16.2             (0.00793658 0 0)             (1.0602 0 0)             (1.41256 0 0)             (1.70534 0 0)             (1.76245 0 0)
         16.3             (0.00969793 0 0)             (1.06332 0 0)             (1.41448 0 0)             (1.70511 0 0)             (1.71758 0 0)
         16.4             (0.0120762 0 0)             (1.06636 0 0)             (1.41571 0 0)             (1.70782 0 0)             (1.72712 0 0)
         16.5             (0.0140641 0 0)             (1.06955 0 0)             (1.41814 0 0)             (1.70807 0 0)             (1.76296 0 0)
         16.6             (0.0141936 0 0)             (1.07266 0 0)             (1.42003 0 0)             (1.70514 0 0)             (1.74489 0 0)
         16.7             (0.0122725 0 0)             (1.07543 0 0)             (1.42148 0 0)             (1.70649 0 0)             (1.71413 0 0)
         16.8             (0.00990504 0 0)             (1.07726 0 0)             (1.42293 0 0)             (1.70908 0 0)             (1.72914 0 0)
         16.9             (0.00824402 0 0)             (1.0788 0 0)             (1.42433 0 0)             (1.70964 0 0)             (1.76543 0 0)
           17             (0.00737583 0 0)             (1.07884 0 0)             (1.42572 0 0)             (1.70576 0 0)             (1.74143 0 0)
         17.1             (0.00698755 0 0)             (1.07546 0 0)             (1.42661 0 0)             (1.70878 0 0)             (1.71714 0 0)
         17.2             (0.00682564 0 0)             (1.06635 0 0)             (1.42731 0 0)             (1.71125 0 0)             (1.72943 0 0)
         17.3             (0.00679113 0 0)             (1.04827 0 0)             (1.42755 0 0)             (1.71186 0 0)             (1.76215 0 0)
         17.4             (0.0067846 0 0)             (1.01821 0 0)             (1.42584 0 0)             (1.70953 0 0)             (1.76867 0 0)
         17.5             (0.00678531 0 0)             (0.976837 0 0)             (1.4217 0 0)             (1.70882 0 0)             (1.74004 0 0)
         17.6             (0.00677329 0 0)             (0.932137 0 0)             (1.41279 0 0)             (1.70958 0 0)             (1.72015 0 0)
         17.7             (0.00670818 0 0)             (0.895161 0 0)             (1.39574 0 0)             (1.70913 0 0)             (1.76084 0 0)
         17.8             (0.00670648 0 0)             (0.870719 0 0)             (1.36839 0 0)             (1.7065 0 0)             (1.75435 0 0)
         17.9             (0.00670839 0 0)             (0.856924 0 0)             (1.33046 0 0)             (1.70341 0 0)             (1.71907 0 0)
           18             (0.00664764 0 0)             (0.849553 0 0)             (1.28822 0 0)             (1.69996 0 0)             (1.75631 0 0)
         18.1             (0.00660572 0 0)             (0.845175 0 0)             (1.2518 0 0)             (1.6877 0 0)             (1.72449 0 0)
         18.2             (0.00656153 0 0)             (0.842235 0 0)             (1.22834 0 0)             (1.67721 0 0)             (1.75086 0 0)
         18.3             (0.00659219 0 0)             (0.84 0 0)             (1.21789 0 0)             (1.67205 0 0)             (1.71163 0 0)
         18.4             (0.00655207 0 0)             (0.838123 0 0)             (1.21869 0 0)             (1.66941 0 0)             (1.75502 0 0)
         18.5             (0.00650685 0 0)             (0.836607 0 0)             (1.23026 0 0)             (1.67992 0 0)             (1.73025 0 0)
         18.6             (0.00652842 0 0)             (0.836398 0 0)             (1.25186 0 0)             (1.69176 0 0)             (1.7232 0 0)
         18.7             (0.00647739 0 0)             (0.838312 0 0)             (1.28355 0 0)             (1.69751 0 0)             (1.73034 0 0)
         18.8             (0.0064414 0 0)             (0.844094 0 0)             (1.3189 0 0)             (1.70231 0 0)             (1.75993 0 0)
         18.9             (0.00642342 0 0)             (0.856152 0 0)             (1.34989 0 0)             (1.70181 0 0)             (1.72316 0 0)
           19             (0.00640027 0 0)             (0.87628 0 0)             (1.37076 0 0)             (1.70912 0 0)             (1.73816 0 0)
         19.1             (0.00643359 0 0)             (0.905948 0 0)             (1.38346 0 0)             (1.70776 0 0)             (1.7709 0 0)
         19.2             (0.00644445 0 0)             (0.940056 0 0)             (1.3895 0 0)             (1.70825 0 0)             (1.72785 0 0)
         19.3             (0.00647376 0 0)             (0.972012 0 0)             (1.39309 0 0)             (1.71012 0 0)             (1.72527 0 0)
         19.4             (0.00652409 0 0)             (0.995301 0 0)             (1.39487 0 0)             (1.71044 0 0)             (1.77038 0 0)
         19.5             (0.00663563 0 0)             (1.01037 0 0)             (1.39626 0 0)             (1.7082 0 0)             (1.75756 0 0)
         19.6             (0.00688944 0 0)             (1.01877 0 0)             (1.39778 0 0)             (1.70627 0 0)             (1.72996 0 0)
         19.7             (0.00734956 0 0)             (1.02399 0 0)             (1.3994 0 0)             (1.70912 0 0)             (1.72304 0 0)
         19.8             (0.00808589 0 0)             (1.02746 0 0)             (1.40061 0 0)             (1.71219 0 0)             (1.74233 0 0)
         19.9             (0.00915615 0 0)             (1.03026 0 0)             (1.40195 0 0)             (1.7092 0 0)             (1.76869 0 0)
           20             (0.010342 0 0)             (1.03281 0 0)             (1.40346 0 0)             (1.70732 0 0)             (1.75965 0 0)
         20.1             (0.0112469 0 0)             (1.0354 0 0)             (1.40489 0 0)             (1.71002 0 0)             (1.72603 0 0)