# Probe 0 (1 0 0)
# Probe 1 (140 0 0)
# Probe 2 (200 0 0)
# Probe 3 (249.6 0 0)
# Probe 4 (255 0 0)
#       Probe             0             1             2             3             4
#        Time
            0             (0 0 0)             (0 0 0)             (0 0 0)             (0 0 0)             (0 0 0)
          0.1             (1.32706e-11 0 0)             (-7.0435e-12 0 0)             (1.19125e-12 0 0)             (1.68558 0 0)             (1.69038 0 0)
          0.2             (4.71584e-12 0 0)             (-1.20213e-11 0 0)             (8.19259e-12 0 0)             (1.69387 0 0)             (1.71442 0 0)
          0.3             (1.21745e-11 0 0)             (-1.54294e-11 0 0)             (6.17285e-05 0 0)             (1.70046 0 0)             (1.71221 0 0)
          0.4             (9.90167e-12 0 0)             (-1.71021e-11 0 0)             (0.196167 0 0)             (1.70348 0 0)             (1.69844 0 0)
          0.5             (4.2711e-12 0 0)             (2.55213e-09 0 0)             (1.65527 0 0)             (1.70546 0 0)             (1.71905 0 0)
          0.6             (1.04025e-12 0 0)             (2.9597e-05 0 0)             (1.66413 0 0)             (1.70889 0 0)             (1.72191 0 0)
          0.7             (6.19959e-12 0 0)             (0.000119917 0 0)             (1.65657 0 0)             (1.71014 0 0)             (1.71724 0 0)
          0.8             (1.28997e-11 0 0)             (0.0569533 0 0)             (1.64918 0 0)             (1.70909 0 0)             (1.72847 0 0)
          0.9             (1.48191e-11 0 0)             (1.48436 0 0)             (1.64399 0 0)             (1.70785 0 0)             (1.70776 0 0)
            1             (1.78987e-11 0 0)             (1.57378 0 0)             (1.64029 0 0)             (1.70858 0 0)             (1.7289 0 0)
          1.1             (6.45871e-11 0 0)             (1.56846 0 0)             (1.63735 0 0)             (1.70706 0 0)             (1.71743 0 0)
          1.2             (5.75042e-08 0 0)             (1.56429 0 0)             (1.63819 0 0)             (1.70948 0 0)             (1.70876 0 0)
          1.3             (2.75523e-06 0 0)             (1.56164 0 0)             (1.63993 0 0)             (1.71156 0 0)             (1.70844 0 0)
          1.4             (7.23799e-06 0 0)             (1.55955 0 0)             (1.64147 0 0)             (1.71197 0 0)             (1.71188 0 0)
          1.5             (3.9982e-06 0 0)             (1.56003 0 0)             (1.64291 0 0)             (1.7118 0 0)             (1.7176 0 0)
          1.6             (4.46181e-05 0 0)             (1.56264 0 0)             (1.64395 0 0)             (1.71101 0 0)             (1.72408 0 0)
          1.7             (0.00260088 0 0)             (1.56513 0 0)             (1.645 0 0)             (1.71013 0 0)             (1.72903 0 0)
          1.8             (0.0438334 0 0)             (1.56759 0 0)             (1.64601 0 0)             (1.70941 0 0)             (1.73022 0 0)
          1.9             (0.168758 0 0)             (1.56977 0 0)             (1.64711 0 0)             (1.70903 0 0)             (1.72946 0 0)
            2             (-0.000877408 0 0)             (1.57175 0 0)             (1.6482 0 0)             (1.70922 0 0)             (1.7293 0 0)
          2.1             (0.00147964 0 0)             (1.57377 0 0)             (1.64929 0 0)             (1.70944 0 0)             (1.72911 0 0)
          2.2             (0.00250696 0 0)             (1.57576 0 0)             (1.65019 0 0)             (1.70968 0 0)             (1.72889 0 0)
          2.3             (0.00340291 0 0)             (1.57777 0 0)             (1.65122 0 0)             (1.70987 0 0)             (1.72861 0 0)
          2.4             (0.0031901 0 0)             (1.57933 0 0)             (1.65226 0 0)             (1.71013 0 0)             (1.72832 0 0)
          2.5             (0.00317649 0 0)             (1.57124 0 0)             (1.65328 0 0)             (1.71034 0 0)             (1.72799 0 0)
          2.6             (0.00312669 0 0)             (1.54573 0 0)             (1.65426 0 0)             (1.71056 0 0)             (1.72762 0 0)
          2.7             (0.00304118 0 0)             (1.52527 0 0)             (1.65499 0 0)             (1.71082 0 0)             (1.72725 0 0)
          2.8             (0.00300508 0 0)             (1.45252 0 0)             (1.64971 0 0)             (1.71104 0 0)             (1.72684 0 0)
          2.9             (0.00297376 0 0)             (0.952945 0 0)             (1.62864 0 0)             (1.71126 0 0)             (1.72641 0 0)
            3             (0.0029421 0 0)             (0.405419 0 0)             (1.60733 0 0)             (1.71046 0 0)             (1.72523 0 0)
          3.1             (0.00291834 0 0)             (0.370624 0 0)             (1.58994 0 0)             (1.70265 0 0)             (1.71535 0 0)
          3.2             (0.00288005 0 0)             (0.36611 0 0)             (1.56519 0 0)             (1.69621 0 0)             (1.70678 0 0)
          3.3             (0.00281794 0 0)             (0.361734 0 0)             (1.24045 0 0)             (1.6965 0 0)             (1.70519 0 0)
          3.4             (0.00221918 0 0)             (0.357351 0 0)             (0.658515 0 0)             (1.6984 0 0)             (1.70735 0 0)
          3.5             (0.00146248 0 0)             (0.352962 0 0)             (0.520179 0 0)             (1.70055 0 0)             (1.70801 0 0)
          3.6             (0.00142965 0 0)             (0.348525 0 0)             (0.522609 0 0)             (1.60644 0 0)             (1.70125 0 0)
          3.7             (0.00238506 0 0)             (0.343981 0 0)             (0.52801 0 0)             (1.22792 0 0)             (1.59848 0 0)
          3.8             (0.00267676 0 0)             (0.340626 0 0)             (0.535557 0 0)             (1.26017 0 0)             (1.60005 0 0)
          3.9             (0.0026585 0 0)             (0.342159 0 0)             (0.540878 0 0)             (1.63482 0 0)             (1.71253 0 0)
            4             (0.00261234 0 0)             (0.348304 0 0)             (0.559049 0 0)             (1.68856 0 0)             (1.71072 0 0)
          4.1             (0.00257317 0 0)             (0.354813 0 0)             (0.765511 0 0)             (1.69441 0 0)             (1.70802 0 0)
          4.2             (0.00255912 0 0)             (0.361764 0 0)             (1.25414 0 0)             (1.69464 0 0)             (1.70585 0 0)
          4.3             (0.00255529 0 0)             (0.368016 0 0)             (1.49043 0 0)             (1.69619 0 0)             (1.70625 0 0)
          4.4             (0.00253224 0 0)             (0.381216 0 0)             (1.516 0 0)             (1.6972 0 0)             (1.70683 0 0)
          4.5             (0.00248793 0 0)             (0.500049 0 0)             (1.51757 0 0)             (1.69751 0 0)             (1.70675 0 0)
          4.6             (0.00243173 0 0)             (0.896031 0 0)             (1.51689 0 0)             (1.69671 0 0)             (1.70904 0 0)
          4.7             (0.00245456 0 0)             (1.24156 0 0)             (1.51621 0 0)             (1.69673 0 0)             (1.70815 0 0)
          4.8             (0.00282605 0 0)             (1.31164 0 0)             (1.51662 0 0)             (1.69567 0 0)             (1.7099 0 0)
          4.9             (0.0035262 0 0)             (1.32182 0 0)             (1.52043 0 0)             (1.69549 0 0)             (1.70883 0 0)
            5             (0.00399508 0 0)             (1.32547 0 0)             (1.5258 0 0)             (1.69686 0 0)             (1.7077 0 0)
          5.1             (0.00407466 0 0)             (1.32895 0 0)             (1.52951 0 0)             (1.69737 0 0)             (1.70875 0 0)
          5.2             (0.00414518 0 0)             (1.33241 0 0)             (1.53282 0 0)             (1.70071 0 0)             (1.70857 0 0)
          5.3             (0.00437367 0 0)             (1.33579 0 0)             (1.53621 0 0)             (1.70401 0 0)             (1.71136 0 0)
          5.4             (0.00899689 0 0)             (1.33928 0 0)             (1.5399 0 0)             (1.70412 0 0)             (1.71049 0 0)
          5.5             (0.0310631 0 0)             (1.34328 0 0)             (1.54369 0 0)             (1.70307 0 0)             (1.7105 0 0)
          5.6             (0.0613033 0 0)             (1.34785 0 0)             (1.54683 0 0)             (1.70242 0 0)             (1.71056 0 0)
          5.7             (0.0395811 0 0)             (1.35273 0 0)             (1.54757 0 0)             (1.70292 0 0)             (1.71005 0 0)
          5.8             (0.00965707 0 0)             (1.35671 0 0)             (1.54693 0 0)             (1.70317 0 0)             (1.71229 0 0)
          5.9             (0.00545404 0 0)             (1.35767 0 0)             (1.54732 0 0)             (1.70361 0 0)             (1.71125 0 0)
            6             (0.00477881 0 0)             (1.35511 0 0)             (1.54863 0 0)             (1.70399 0 0)             (1.71096 0 0)
          6.1             (0.00466812 0 0)             (1.34933 0 0)             (1.55046 0 0)             (1.70402 0 0)             (1.71086 0 0)
          6.2             (0.00465248 0 0)             (1.34122 0 0)             (1.55136 0 0)             (1.70401 0 0)             (1.71324 0 0)
          6.3             (0.00460719 0 0)             (1.33123 0 0)             (1.54978 0 0)             (1.70459 0 0)             (1.71218 0 0)
          6.4             (0.00462262 0 0)             (1.30455 0 0)             (1.54525 0 0)             (1.70506 0 0)             (1.71454 0 0)
          6.5             (0.00464282 0 0)             (1.20579 0 0)             (1.53862 0 0)             (1.70405 0 0)             (1.7155 0 0)
          6.6             (0.00469265 0 0)             (0.966801 0 0)             (1.53171 0 0)             (1.7031 0 0)             (1.71727 0 0)
          6.7             (0.00472992 0 0)             (0.698881 0 0)             (1.52265 0 0)             (1.70163 0 0)             (1.71362 0 0)
          6.8             (0.00474269 0 0)             (0.593283 0 0)             (1.50209 0 0)             (1.69878 0 0)             (1.71131 0 0)
          6.9             (0.00471004 0 0)             (0.572992 0 0)             (1.43011 0 0)             (1.69845 0 0)             (1.7143 0 0)
            7             (0.00454859 0 0)             (0.56664 0 0)             (1.24143 0 0)             (1.69736 0 0)             (1.72448 0 0)
          7.1             (0.004275 0 0)             (0.56272 0 0)             (0.981375 0 0)             (1.69215 0 0)             (1.72882 0 0)
          7.2             (0.00411015 0 0)             (0.558923 0 0)             (0.839669 0 0)             (1.66782 0 0)             (1.71659 0 0)
          7.3             (0.00415877 0 0)             (0.555018 0 0)             (0.810025 0 0)             (1.58838 0 0)             (1.69708 0 0)
          7.4             (0.00422744 0 0)             (0.551422 0 0)             (0.806488 0 0)             (1.46896 0 0)             (1.66772 0 0)
          7.5             (0.00425758 0 0)             (0.548899 0 0)             (0.81001 0 0)             (1.47502 0 0)             (1.66801 0 0)
          7.6             (0.00424199 0 0)             (0.548146 0 0)             (0.825294 0 0)             (1.60633 0 0)             (1.69191 0 0)
          7.7             (0.00422489 0 0)             (0.548956 0 0)             (0.880563 0 0)             (1.67332 0 0)             (1.72469 0 0)
          7.8             (0.00419563 0 0)             (0.550657 0 0)             (1.0283 0 0)             (1.6871 0 0)             (1.71825 0 0)
          7.9             (0.00414788 0 0)             (0.553987 0 0)             (1.24883 0 0)             (1.69271 0 0)             (1.71107 0 0)
            8             (0.00413415 0 0)             (0.565134 0 0)             (1.39768 0 0)             (1.69343 0 0)             (1.71344 0 0)
          8.1             (0.00409338 0 0)             (0.605005 0 0)             (1.44408 0 0)             (1.6947 0 0)             (1.71882 0 0)
          8.2             (0.0040437 0 0)             (0.716984 0 0)             (1.45401 0 0)             (1.69465 0 0)             (1.72102 0 0)
          8.3             (0.00403515 0 0)             (0.914 0 0)             (1.45569 0 0)             (1.69446 0 0)             (1.7272 0 0)
          8.4             (0.0041355 0 0)             (1.08823 0 0)             (1.45621 0 0)             (1.69386 0 0)             (1.73115 0 0)
          8.5             (0.00435914 0 0)             (1.16121 0 0)             (1.45757 0 0)             (1.6929 0 0)             (1.72752 0 0)
          8.6             (0.00462407 0 0)             (1.18193 0 0)             (1.45987 0 0)             (1.69246 0 0)             (1.72128 0 0)
          8.7             (0.00483275 0 0)             (1.18895 0 0)             (1.46307 0 0)             (1.69492 0 0)             (1.71464 0 0)
          8.8             (0.00500599 0 0)             (1.1928 0 0)             (1.46622 0 0)             (1.6964 0 0)             (1.71415 0 0)
          8.9             (0.005598 0 0)             (1.19635 0 0)             (1.4693 0 0)             (1.6984 0 0)             (1.71824 0 0)
            9             (0.00779715 0 0)             (1.19977 0 0)             (1.47247 0 0)             (1.69935 0 0)             (1.72417 0 0)
          9.1             (0.0139409 0 0)             (1.20365 0 0)             (1.47562 0 0)             (1.69867 0 0)             (1.73155 0 0)
          9.2             (0.0252737 0 0)             (1.20793 0 0)             (1.47861 0 0)             (1.69712 0 0)             (1.73455 0 0)
          9.3             (0.032381 0 0)             (1.21246 0 0)             (1.48119 0 0)             (1.6979 0 0)             (1.73223 0 0)
          9.4             (0.0237631 0 0)             (1.21677 0 0)             (1.48262 0 0)             (1.69744 0 0)             (1.72661 0 0)
          9.5             (0.0118985 0 0)             (1.22028 0 0)             (1.48394 0 0)             (1.69943 0 0)             (1.72449 0 0)
          9.6             (0.00729217 0 0)             (1.22194 0 0)             (1.48515 0 0)             (1.70003 0 0)             (1.72252 0 0)
          9.7             (0.00601783 0 0)             (1.22196 0 0)             (1.48706 0 0)             (1.70076 0 0)             (1.71851 0 0)
          9.8             (0.00571739 0 0)             (1.21961 0 0)             (1.48838 0 0)             (1.70208 0 0)             (1.71693 0 0)
          9.9             (0.00565061 0 0)             (1.21372 0 0)             (1.48942 0 0)             (1.70255 0 0)             (1.7212 0 0)
           10             (0.00562734 0 0)             (1.19792 0 0)             (1.48874 0 0)             (1.70333 0 0)             (1.73201 0 0)
         10.1             (0.00566064 0 0)             (1.15623 0 0)             (1.48673 0 0)             (1.70259 0 0)             (1.73478 0 0)
         10.2             (0.00567688 0 0)             (1.06476 0 0)             (1.48352 0 0)             (1.70159 0 0)             (1.7367 0 0)
         10.3             (0.00569477 0 0)             (0.925505 0 0)             (1.47757 0 0)             (1.70171 0 0)             (1.72828 0 0)
         10.4             (0.00571289 0 0)             (0.798213 0 0)             (1.46376 0 0)             (1.70061 0 0)             (1.7186 0 0)
         10.5             (0.00567542 0 0)             (0.73305 0 0)             (1.42956 0 0)             (1.70046 0 0)             (1.71812 0 0)
         10.6             (0.00563739 0 0)             (0.710091 0 0)             (1.35421 0 0)             (1.69893 0 0)             (1.72562 0 0)
         10.7             (0.00552074 0 0)             (0.701411 0 0)             (1.23129 0 0)             (1.69395 0 0)             (1.73428 0 0)
         10.8             (0.00539361 0 0)             (0.69676 0 0)             (1.10455 0 0)             (1.68172 0 0)             (1.72513 0 0)
         10.9             (0.0053216 0 0)             (0.693095 0 0)             (1.02992 0 0)             (1.6528 0 0)             (1.71201 0 0)
           11             (0.00531645 0 0)             (0.689777 0 0)             (1.00273 0 0)             (1.60567 0 0)             (1.69719 0 0)
         11.1             (0.00532523 0 0)             (0.686921 0 0)             (0.997113 0 0)             (1.57165 0 0)             (1.69072 0 0)
         11.2             (0.00531766 0 0)             (0.684598 0 0)             (1.00485 0 0)             (1.59297 0 0)             (1.69727 0 0)
         11.3             (0.00531498 0 0)             (0.683129 0 0)             (1.03143 0 0)             (1.64483 0 0)             (1.71085 0 0)
         11.4             (0.00527801 0 0)             (0.682668 0 0)             (1.09323 0 0)             (1.67733 0 0)             (1.72852 0 0)
         11.5             (0.00525949 0 0)             (0.684414 0 0)             (1.1946 0 0)             (1.68841 0 0)             (1.71695 0 0)
         11.6             (0.00522398 0 0)             (0.69179 0 0)             (1.30456 0 0)             (1.6943 0 0)             (1.72045 0 0)
         11.7             (0.00518587 0 0)             (0.712975 0 0)             (1.37588 0 0)             (1.69489 0 0)             (1.73112 0 0)
         11.8             (0.00514644 0 0)             (0.762949 0 0)             (1.40676 0 0)             (1.69425 0 0)             (1.73638 0 0)
         11.9             (0.00512859 0 0)             (0.850753 0 0)             (1.41695 0 0)             (1.69489 0 0)             (1.72865 0 0)
           12             (0.00517327 0 0)             (0.957622 0 0)             (1.4204 0 0)             (1.69567 0 0)             (1.721 0 0)
         12.1             (0.00524958 0 0)             (1.03943 0 0)             (1.42178 0 0)             (1.69758 0 0)             (1.72175 0 0)
         12.2             (0.005367 0 0)             (1.08089 0 0)             (1.42351 0 0)             (1.697 0 0)             (1.73621 0 0)
         12.3             (0.00551336 0 0)             (1.0979 0 0)             (1.42561 0 0)             (1.69646 0 0)             (1.73533 0 0)
         12.4             (0.00574351 0 0)             (1.10521 0 0)             (1.42794 0 0)             (1.69741 0 0)             (1.72323 0 0)
         12.5             (0.00629115 0 0)             (1.10922 0 0)             (1.43052 0 0)             (1.69832 0 0)             (1.72087 0 0)
         12.6             (0.00760982 0 0)             (1.11271 0 0)             (1.43296 0 0)             (1.70014 0 0)             (1.73023 0 0)
         12.7             (0.0104675 0 0)             (1.11617 0 0)             (1.4356 0 0)             (1.69988 0 0)             (1.73865 0 0)
         12.8             (0.0151062 0 0)             (1.11984 0 0)             (1.43801 0 0)             (1.69938 0 0)             (1.73228 0 0)
         12.9             (0.0194505 0 0)             (1.12381 0 0)             (1.44019 0 0)             (1.70103 0 0)             (1.7233 0 0)
           13             (0.0193297 0 0)             (1.12747 0 0)             (1.44212 0 0)             (1.7018 0 0)             (1.72498 0 0)
         13.1             (0.0145188 0 0)             (1.13085 0 0)             (1.44387 0 0)             (1.70209 0 0)             (1.73296 0 0)
         13.2             (0.00993253 0 0)             (1.13345 0 0)             (1.44537 0 0)             (1.70182 0 0)             (1.73916 0 0)
         13.3             (0.00761462 0 0)             (1.13491 0 0)             (1.44703 0 0)             (1.70157 0 0)             (1.73486 0 0)
         13.4             (0.00673064 0 0)             (1.13471 0 0)             (1.44852 0 0)             (1.70251 0 0)             (1.72511 0 0)
         13.5             (0.00643432 0 0)             (1.13114 0 0)             (1.44963 0 0)             (1.70429 0 0)             (1.72273 0 0)
         13.6             (0.00635391 0 0)             (1.12075 0 0)             (1.45013 0 0)             (1.70432 0 0)             (1.73532 0 0)
         13.7             (0.00633262 0 0)             (1.09652 0 0)             (1.45002 0 0)             (1.70334 0 0)             (1.74192 0 0)
         13.8             (0.00634337 0 0)             (1.04968 0 0)             (1.44837 0 0)             (1.70305 0 0)             (1.73277 0 0)
         13.9             (0.00633373 0 0)             (0.97887 0 0)             (1.44406 0 0)             (1.70324 0 0)             (1.72598 0 0)
           14             (0.00633748 0 0)             (0.90137 0 0)             (1.43407 0 0)             (1.70474 0 0)             (1.72961 0 0)
         14.1             (0.00634227 0 0)             (0.842724 0 0)             (1.41272 0 0)             (1.70394 0 0)             (1.7406 0 0)
         14.2             (0.00629359 0 0)             (0.810631 0 0)             (1.37195 0 0)             (1.70127 0 0)             (1.7392 0 0)
         14.3             (0.00624037 0 0)             (0.795705 0 0)             (1.30856 0 0)             (1.69857 0 0)             (1.72518 0 0)
         14.4             (0.00618018 0 0)             (0.788666 0 0)             (1.23514 0 0)             (1.69002 0 0)             (1.72813 0 0)
         14.5             (0.00611767 0 0)             (0.784397 0 0)             (1.17541 0 0)             (1.67596 0 0)             (1.73366 0 0)
         14.6             (0.00608161 0 0)             (0.781243 0 0)             (1.14162 0 0)             (1.65381 0 0)             (1.71842 0 0)
         14.7             (0.00606078 0 0)             (0.77842 0 0)             (1.1287 0 0)             (1.63537 0 0)             (1.71068 0 0)
         14.8             (0.00603115 0 0)             (0.776088 0 0)             (1.12997 0 0)             (1.63418 0 0)             (1.71765 0 0)
         14.9             (0.00603647 0 0)             (0.774219 0 0)             (1.14557 0 0)             (1.65454 0 0)             (1.72826 0 0)
           15             (0.00601664 0 0)             (0.773387 0 0)             (1.17905 0 0)             (1.67557 0 0)             (1.72193 0 0)
         15.1             (0.00599229 0 0)             (0.774652 0 0)             (1.23177 0 0)             (1.69027 0 0)             (1.74011 0 0)
         15.2             (0.00595823 0 0)             (0.780202 0 0)             (1.29358 0 0)             (1.69527 0 0)             (1.73138 0 0)
         15.3             (0.0059398 0 0)             (0.794641 0 0)             (1.34518 0 0)             (1.69894 0 0)             (1.73024 0 0)
         15.4             (0.00590231 0 0)             (0.823521 0 0)             (1.37672 0 0)             (1.70008 0 0)             (1.74305 0 0)
         15.5             (0.0058947 0 0)             (0.870423 0 0)             (1.39224 0 0)             (1.69979 0 0)             (1.73494 0 0)
         15.6             (0.00589399 0 0)             (0.929184 0 0)             (1.39882 0 0)             (1.7014 0 0)             (1.72767 0 0)
         15.7             (0.00593377 0 0)             (0.9832 0 0)             (1.40179 0 0)             (1.70134 0 0)             (1.73813 0 0)
         15.8             (0.00600117 0 0)             (1.01978 0 0)             (1.4036 0 0)             (1.70194 0 0)             (1.74175 0 0)
         15.9             (0.00611082 0 0)             (1.04 0 0)             (1.40519 0 0)             (1.70129 0 0)             (1.72888 0 0)
           16             (0.0063457 0 0)             (1.05005 0 0)             (1.40698 0 0)             (1.70286 0 0)             (1.72997 0 0)
         16.1             (0.00681071 0 0)             (1.05543 0 0)             (1.40898 0 0)             (1.70283 0 0)             (1.73739 0 0)
         16.2             (0.00775449 0 0)             (1.05902 0 0)             (1.41103 0 0)             (1.70354 0 0)             (1.74511 0 0)
         16.3             (0.00939963 0 0)             (1.06216 0 0)             (1.413 0 0)             (1.70397 0 0)             (1.73255 0 0)
         16.4             (0.0117107 0 0)             (1.06522 0 0)             (1.41432 0 0)             (1.70479 0 0)             (1.73209 0 0)
         16.5             (0.0138202 0 0)             (1.06837 0 0)             (1.41654 0 0)             (1.70532 0 0)             (1.74434 0 0)
         16.6             (0.0142544 0 0)             (1.07148 0 0)             (1.41851 0 0)             (1.70456 0 0)             (1.74284 0 0)
         16.7             (0.0125835 0 0)             (1.07433 0 0)             (1.42005 0 0)             (1.70513 0 0)             (1.73072 0 0)
         16.8             (0.0102207 0 0)             (1.07628 0 0)             (1.42146 0 0)             (1.70586 0 0)             (1.73308 0 0)
         16.9             (0.00844261 0 0)             (1.07785 0 0)             (1.42288 0 0)             (1.70666 0 0)             (1.7459 0 0)
           17             (0.00746808 0 0)             (1.07814 0 0)             (1.42428 0 0)             (1.70591 0 0)             (1.74226 0 0)
         17.1             (0.00702494 0 0)             (1.07532 0 0)             (1.42524 0 0)             (1.707 0 0)             (1.73282 0 0)
         17.2             (0.0068458 0 0)             (1.06716 0 0)             (1.42599 0 0)             (1.7081 0 0)             (1.73418 0 0)
         17.3             (0.00679093 0 0)             (1.05037 0 0)             (1.4263 0 0)             (1.70832 0 0)             (1.74516 0 0)
         17.4             (0.00677379 0 0)             (1.02169 0 0)             (1.42484 0 0)             (1.70825 0 0)             (1.74758 0 0)
         17.5             (0.00677447 0 0)             (0.981251 0 0)             (1.42106 0 0)             (1.70799 0 0)             (1.74265 0 0)
         17.6             (0.00677149 0 0)             (0.936557 0 0)             (1.413 0 0)             (1.70765 0 0)             (1.73348 0 0)
         17.7             (0.00671686 0 0)             (0.898581 0 0)             (1.39725 0 0)             (1.70768 0 0)             (1.74461 0 0)
         17.8             (0.00669487 0 0)             (0.872818 0 0)             (1.37117 0 0)             (1.70574 0 0)             (1.74707 0 0)
         17.9             (0.00671317 0 0)             (0.857963 0 0)             (1.33427 0 0)             (1.70265 0 0)             (1.73229 0 0)
           18             (0.00666673 0 0)             (0.849934 0 0)             (1.29214 0 0)             (1.69816 0 0)             (1.7413 0 0)
         18.1             (0.00661103 0 0)             (0.845195 0 0)             (1.2548 0 0)             (1.68832 0 0)             (1.73464 0 0)
         18.2             (0.00656362 0 0)             (0.842096 0 0)             (1.22991 0 0)             (1.67742 0 0)             (1.73679 0 0)
         18.3             (0.0065721 0 0)             (0.839799 0 0)             (1.21783 0 0)             (1.66963 0 0)             (1.7262 0 0)
         18.4             (0.00654697 0 0)             (0.837885 0 0)             (1.21715 0 0)             (1.66742 0 0)             (1.73877 0 0)
         18.5             (0.0065101 0 0)             (0.83626 0 0)             (1.22743 0 0)             (1.67663 0 0)             (1.73097 0 0)
         18.6             (0.00652849 0 0)             (0.835853 0 0)             (1.24787 0 0)             (1.68751 0 0)             (1.7346 0 0)
         18.7             (0.0064861 0 0)             (0.837407 0 0)             (1.27887 0 0)             (1.69518 0 0)             (1.73379 0 0)
         18.8             (0.0064487 0 0)             (0.842573 0 0)             (1.31397 0 0)             (1.70118 0 0)             (1.74843 0 0)
         18.9             (0.00643362 0 0)             (0.853783 0 0)             (1.34566 0 0)             (1.70215 0 0)             (1.73765 0 0)
           19             (0.0064129 0 0)             (0.872955 0 0)             (1.36747 0 0)             (1.70658 0 0)             (1.73843 0 0)
         19.1             (0.00643035 0 0)             (0.901696 0 0)             (1.38095 0 0)             (1.70646 0 0)             (1.75068 0 0)
         19.2             (0.00644103 0 0)             (0.935552 0 0)             (1.38769 0 0)             (1.70669 0 0)             (1.74023 0 0)
         19.3             (0.00646447 0 0)             (0.96801 0 0)             (1.39142 0 0)             (1.70752 0 0)             (1.73644 0 0)
         19.4             (0.00651346 0 0)             (0.992226 0 0)             (1.39332 0 0)             (1.7078 0 0)             (1.751 0 0)
         19.5             (0.00661685 0 0)             (1.0081 0 0)             (1.39483 0 0)             (1.70713 0 0)             (1.74957 0 0)
         19.6             (0.00684593 0 0)             (1.01719 0 0)             (1.39631 0 0)             (1.70639 0 0)             (1.742 0 0)
         19.7             (0.00725818 0 0)             (1.02266 0 0)             (1.39794 0 0)             (1.70727 0 0)             (1.73849 0 0)
         19.8             (0.0079643 0 0)             (1.02632 0 0)             (1.39922 0 0)             (1.70906 0 0)             (1.74108 0 0)
         19.9             (0.00898865 0 0)             (1.02914 0 0)             (1.40048 0 0)             (1.70893 0 0)             (1.7496 0 0)
           20             (0.0101621 0 0)             (1.03175 0 0)             (1.4021 0 0)             (1.70836 0 0)             (1.75188 0 0)
         20.1             (0.0111399 0 0)             (1.03431 0 0)             (1.40339 0 0)             (1.70918 0 0)             (1.74067 0 0)